(written by ASE)

2106 atoms
2 atom types

0.0      46.340099999999893  xlo xhi
0.0      40.131703813911145  ylo yhi
0.0      15.284700000000001  zlo zhi
    -23.170049999999947 -2.6645352591003682e-15  1.0150728963098864e-14  xy xz yz

Masses

     1      26.981538493059151 # Al
     2      106.41999997262405 # Pd

Atoms # atomic

     1   1                       0                       0                       0
     2   1      7.7233499999999804      4.4590782015456849      1.6982999999999997
     3   1                       0      8.9181564030913698      3.3965999999999994
     4   1      5.4844901642339847      12.443968889452938           1.68706099026
     5   1     -5.7956882642864853      11.904957968943105      1.6870609902599998
     6   1     0.31119810005250065      2.4055423508780671      1.6870609902599993
     7   1      5.4844901642339847      3.5258124863615681      3.3853609902599993
     8   1      9.6510117357134764      2.9868015658517351      3.3853609902599993
     9   1       8.034548100052481      6.8646205524237516      3.3853609902599993
    10   1     -2.2388598357659957       7.984890687907253      5.0836609902599985
    11   1      1.9276617357134953        7.44587976739742      5.0836609902599985
    12   1     0.31119810005250065      11.323698753969436      5.0836609902599985
    13   1      2.2388598357659966     0.93326571518411594      3.4078390097399991
    14   1      13.519038264286465      1.4722766356939501      3.4078390097399991
    15   1      7.4121518999474798      10.971692253758988      3.4078390097399995
    16   1       9.962209835765977      5.3923439167298008    0.011239009739999998
    17   1      5.7956882642864844      5.9313548372396347    0.011239009740000137
    18   1      7.4121518999474798      2.0535358506676173    0.011239009739999915
    19   1      2.2388598357659966      9.8514221182754866      1.7095390097399996
    20   1      -1.927661735713496       10.39043303878532      1.7095390097399998
    21   1    -0.31119810005250048      6.5126140522133023      1.7095390097399996
    22   1      -3.103765873937093      5.7350484230855665      1.6997276249459989
    23   1      4.3085353106425437      7.8217702988655393      1.6997276249459989
    24   1     -1.2047694367054487      13.197650487323003      1.6997276249459996
    25   1      4.6195841260628878      10.194126624631252      3.3980276249459984
    26   1     -3.4148146893574367      12.280848500411224      3.3980276249459989
    27   1     -1.2047694367054487      4.2794940842316329      3.3980276249459989
    28   1      4.6195841260628878      1.2759702215398816   0.0014276249459992394
    29   1      12.031885310642524      3.3626920973198544   0.0014276249459992867
    30   1      6.5185805632945319      8.7385722857773178   0.0014276249459999055
    31   1      10.827115873937073      7.6421861815514873      3.3951723750539995
    32   1      3.4148146893574403      5.5554643057715154      3.3951723750539999
    33   1       8.928119436705428     0.17958411731405111      3.3951723750539995
    34   1       3.103765873937093      12.101264383097172      5.0934723750539996
    35   1     -4.3085353106425401        10.0145425073172      5.0934723750539996
    36   1       1.204769436705448       4.638662318859736      5.0934723750539987
    37   1       3.103765873937093      3.1831079800058024          1.696872375054
    38   1      11.138164689357421      1.0963861042258305      1.6968723750540002
    39   1       8.928119436705428        9.09774052040542          1.696872375054
    40   2                       0 -8.4568678883779793e-17      2.5474499999999991
    41   2      7.7233499999999804      4.4590782015456849      4.2457499999999984
    42   2                       0      8.9181564030913698     0.84914999999999996
    43   2      5.4548961406379872      12.472223214206085      4.2403066937549987
    44   2     -5.8053602154914881      11.865201630332201      4.2403066937549987
    45   2     0.35046407485350034      2.4170443647358231      4.2403066937549987
    46   2      5.4548961406379872      3.5540668111147156     0.84370669375499996
    47   2      9.6413397845084727      2.9470452272408307      0.8437066937549994
    48   2      8.0738140748534803      6.8761225662815075     0.84370669375500007
    49   2     -2.2684538593619932      8.0131450126604005      2.5420066937549994
    50   2      1.9179897845084926      7.4061234287865156       2.542006693754999
    51   2     0.35046407485350034      11.335200767827192      2.5420066937549994
    52   2      2.2684538593619958     0.90501139043096934     0.85459330624499918
    53   2      13.528710215491468      1.5120329743048539     0.85459330624499963
    54   2      7.3728859251464796       10.96019023990123     0.85459330624499941
    55   2      9.9918038593619762      5.3640895919766542      2.5528933062449988
    56   2      5.8053602154914881      5.9711111758505391      2.5528933062449992
    57   2      7.3728859251464796      2.0420338368098614      2.5528933062449988
    58   2      2.2684538593619958      9.8231677935223392       4.251193306244998
    59   2     -1.9179897845084923      10.430189377396223      4.2511933062449989
    60   2    -0.35046407485350062      6.5011120383555463       4.251193306244998
    61   2     -3.0879313845335927      5.7407972896569115      4.2384992270309985
    62   2      4.2956394014470405      7.8326089356592536      4.2384992270309985
    63   2     -1.2077080169134466      13.181062983957943      4.2384992270309994
    64   2      4.6354186154663877      10.199875491202597     0.84189922703099984
    65   2     -3.4277105985529399      12.291687137204939     0.84189922703100006
    66   2     -1.2077080169134466      4.2629065808665736     0.84189922703100006
    67   2      4.6354186154663877      1.2817190881112266      2.5401992270309992
    68   2      12.018989401447021      3.3735307341135687      2.5401992270309992
    69   2      6.5156419830865335      8.7219847824122585      2.5401992270309997
    70   2      10.811281384533572      7.6364373149801432     0.85640077296899964
    71   2      3.4277105985529421      5.5446256689778002     0.85640077296899997
    72   2      8.9310580169134273     0.19617162067911043     0.85640077296899986
    73   2      3.0879313845335927      12.095515516525829       2.554700772968999
    74   2     -4.2956394014470387      10.003703870523484      2.5547007729689994
    75   2      1.2077080169134469      4.6552498222247953      2.5547007729689994
    76   2      3.0879313845335927      3.1773591134344583      4.2530007729689983
    77   2      11.151060598552922      1.0855474674321153      4.2530007729689983
    78   2      8.9310580169134273      9.1143280237704793      4.2530007729689991
    79   1 -8.8817841970012277e-16  3.3835763210329545e-15      5.0948999999999991
    80   1      7.7233499999999795      4.4590782015456885      6.7931999999999988
    81   1 -8.8817841970012277e-16      8.9181564030913734      8.4914999999999985
    82   1      5.4844901642339838      12.443968889452941      6.7819609902599991
    83   1     -5.7956882642864862      11.904957968943108      6.7819609902599991
    84   1     0.31119810005249976      2.4055423508780707      6.7819609902599991
    85   1      5.4844901642339838      3.5258124863615716      8.4802609902599979
    86   1      9.6510117357134764      2.9868015658517386      8.4802609902599979
    87   1       8.034548100052481      6.8646205524237551      8.4802609902599979
    88   1     -2.2388598357659966      7.9848906879072565      10.178560990259998
    89   1      1.9276617357134944      7.4458797673974235      10.178560990259998
    90   1     0.31119810005249976       11.32369875396944      10.178560990259998
    91   1      2.2388598357659957     0.93326571518411927      8.5027390097399973
    92   1      13.519038264286465      1.4722766356939534      8.5027390097399973
    93   1      7.4121518999474789      10.971692253758992      8.5027390097399991
    94   1       9.962209835765977      5.3923439167298044      5.1061390097399988
    95   1      5.7956882642864835      5.9313548372396383      5.1061390097399988
    96   1      7.4121518999474789      2.0535358506676209      5.1061390097399988
    97   1      2.2388598357659957      9.8514221182754902      6.8044390097399985
    98   1     -1.9276617357134969      10.390433038785323      6.8044390097399994
    99   1    -0.31119810005250137      6.5126140522133058      6.8044390097399985
   100   1     -3.1037658739370939      5.7350484230855701      6.7946276249459983
   101   1      4.3085353106425428      7.8217702988655429      6.7946276249459983
   102   1     -1.2047694367054496      13.197650487323006      6.7946276249459991
   103   1      4.6195841260628869      10.194126624631256      8.4929276249459971
   104   1     -3.4148146893574376      12.280848500411228      8.4929276249459971
   105   1     -1.2047694367054496      4.2794940842316365      8.4929276249459971
   106   1      4.6195841260628869      1.2759702215398849      5.0963276249459986
   107   1      12.031885310642524       3.362692097319858      5.0963276249459986
   108   1      6.5185805632945311      8.7385722857773214      5.0963276249459986
   109   1      10.827115873937073      7.6421861815514909      8.4900723750539981
   110   1      3.4148146893574394       5.555464305771519      8.4900723750539981
   111   1       8.928119436705428     0.17958411731405449      8.4900723750539981
   112   1      3.1037658739370921      12.101264383097176         10.188372375054
   113   1      -4.308535310642541      10.014542507317204         10.188372375054
   114   1      1.2047694367054471      4.6386623188597396      10.188372375053998
   115   1      3.1037658739370921       3.183107980005806      6.7917723750539993
   116   1      11.138164689357421      1.0963861042258338      6.7917723750539993
   117   1       8.928119436705428      9.0977405204054236      6.7917723750539993
   118   2 -8.8817841970012277e-16  3.2990076421491746e-15      7.6423499999999986
   119   2      7.7233499999999795      4.4590782015456885      9.3406499999999983
   120   2 -8.8817841970012277e-16      8.9181564030913734      5.9440499999999989
   121   2      5.4548961406379863      12.472223214206089      9.3352066937549978
   122   2      -5.805360215491489      11.865201630332205      9.3352066937549978
   123   2     0.35046407485349945      2.4170443647358266      9.3352066937549978
   124   2      5.4548961406379863      3.5540668111147191      5.9386066937549993
   125   2      9.6413397845084727      2.9470452272408343      5.9386066937549984
   126   2      8.0738140748534803      6.8761225662815111      5.9386066937549993
   127   2     -2.2684538593619941       8.013145012660404       7.636906693754999
   128   2      1.9179897845084917      7.4061234287865192       7.636906693754999
   129   2     0.35046407485349945      11.335200767827196       7.636906693754999
   130   2       2.268453859361995     0.90501139043097267      5.9494933062449986
   131   2      13.528710215491468      1.5120329743048573      5.9494933062449986
   132   2      7.3728859251464787      10.960190239901234      5.9494933062449986
   133   2      9.9918038593619762      5.3640895919766578      7.6477933062449983
   134   2      5.8053602154914872      5.9711111758505426      7.6477933062449983
   135   2      7.3728859251464787      2.0420338368098649      7.6477933062449983
   136   2       2.268453859361995      9.8231677935223427      9.3460933062449971
   137   2     -1.9179897845084932      10.430189377396227      9.3460933062449971
   138   2    -0.35046407485350151      6.5011120383555498      9.3460933062449971
   139   2     -3.0879313845335936       5.740797289656915      9.3333992270309967
   140   2      4.2956394014470396      7.8326089356592572      9.3333992270309967
   141   2     -1.2077080169134475      13.181062983957947      9.3333992270309984
   142   2      4.6354186154663868      10.199875491202601       5.936799227030999
   143   2     -3.4277105985529408      12.291687137204942       5.936799227030999
   144   2     -1.2077080169134475      4.2629065808665771       5.936799227030999
   145   2      4.6354186154663868      1.2817190881112299      7.6350992270309987
   146   2      12.018989401447021      3.3735307341135723      7.6350992270309987
   147   2      6.5156419830865326       8.721984782412262      7.6350992270309996
   148   2      10.811281384533572      7.6364373149801468      5.9513007729689988
   149   2      3.4277105985529412      5.5446256689778037      5.9513007729689988
   150   2      8.9310580169134273     0.19617162067911381      5.9513007729689988
   151   2      3.0879313845335918      12.095515516525833      7.6496007729689985
   152   2     -4.2956394014470396      10.003703870523488      7.6496007729689994
   153   2       1.207708016913446      4.6552498222247989      7.6496007729689994
   154   2      3.0879313845335918      3.1773591134344619      9.3479007729689965
   155   2      11.151060598552922      1.0855474674321186      9.3479007729689965
   156   2      8.9310580169134273      9.1143280237704829      9.3479007729689982
   157   1 -1.7763568394002455e-15   6.767152642065909e-15      10.189799999999998
   158   1      7.7233499999999786       4.459078201545692      11.888099999999998
   159   1 -1.7763568394002455e-15      8.9181564030913769      13.586399999999998
   160   1      5.4844901642339829      12.443968889452945      11.876860990259999
   161   1     -5.7956882642864871      11.904957968943112      11.876860990259997
   162   1     0.31119810005249887      2.4055423508780738      11.876860990259997
   163   1      5.4844901642339829      3.5258124863615747      13.575160990259997
   164   1      9.6510117357134746      2.9868015658517417      13.575160990259997
   165   1      8.0345481000524792      6.8646205524237587      13.575160990259997
   166   1     -2.2388598357659975      7.9848906879072601      15.273460990259997
   167   1      1.9276617357134935      7.4458797673974271      15.273460990259997
   168   1     0.31119810005249887      11.323698753969444      15.273460990259997
   169   1      2.2388598357659948     0.93326571518412271      13.597639009739998
   170   1      13.519038264286463      1.4722766356939567      13.597639009739998
   171   1       7.412151899947478      10.971692253758995      13.597639009739998
   172   1      9.9622098357659752       5.392343916729808      10.201039009739999
   173   1      5.7956882642864826      5.9313548372396419      10.201039009739999
   174   1       7.412151899947478       2.053535850667624      10.201039009739999
   175   1      2.2388598357659948      9.8514221182754937      11.899339009739998
   176   1     -1.9276617357134977      10.390433038785327      11.899339009739998
   177   1    -0.31119810005250226      6.5126140522133094      11.899339009739998
   178   1     -3.1037658739370948      5.7350484230855736      11.889527624945996
   179   1      4.3085353106425419      7.8217702988655464      11.889527624945996
   180   1     -1.2047694367054504       13.19765048732301      11.889527624945998
   181   1       4.619584126062886      10.194126624631259      13.587827624945996
   182   1     -3.4148146893574385      12.280848500411231      13.587827624945998
   183   1     -1.2047694367054504        4.27949408423164      13.587827624945998
   184   1       4.619584126062886      1.2759702215398883      10.191227624945997
   185   1      12.031885310642522      3.3626920973198611      10.191227624945997
   186   1      6.5185805632945302      8.7385722857773249      10.191227624945999
   187   1      10.827115873937071      7.6421861815514944      13.584972375053999
   188   1      3.4148146893574385      5.5554643057715225      13.584972375053999
   189   1      8.9281194367054262     0.17958411731405788      13.584972375053999
   190   1      3.1037658739370912      12.101264383097179      15.283272375053999
   191   1     -4.3085353106425419      10.014542507317207      15.283272375053999
   192   1      1.2047694367054462      4.6386623188597431      15.283272375053999
   193   1      3.1037658739370912      3.1831079800058091      11.886672375053999
   194   1      11.138164689357419      1.0963861042258372      11.886672375053999
   195   1      8.9281194367054262      9.0977405204054271      11.886672375053999
   196   2 -1.7763568394002455e-15  6.6825839631821291e-15      12.737249999999998
   197   2      7.7233499999999786       4.459078201545692      14.435549999999997
   198   2 -1.7763568394002455e-15      8.9181564030913769      11.038949999999998
   199   2      5.4548961406379854      12.472223214206092      14.430106693754999
   200   2     -5.8053602154914898      11.865201630332209      14.430106693754999
   201   2     0.35046407485349856      2.4170443647358297      14.430106693754999
   202   2      5.4548961406379854      3.5540668111147222      11.033506693754997
   203   2       9.641339784508471      2.9470452272408374      11.033506693754997
   204   2      8.0738140748534786      6.8761225662815146      11.033506693754999
   205   2      -2.268453859361995      8.0131450126604076      12.731806693754999
   206   2      1.9179897845084908      7.4061234287865227      12.731806693754997
   207   2     0.35046407485349856        11.3352007678272      12.731806693754999
   208   2      2.2684538593619941     0.90501139043097611      11.044393306244997
   209   2      13.528710215491467      1.5120329743048606      11.044393306244999
   210   2      7.3728859251464778      10.960190239901237      11.044393306244997
   211   2      9.9918038593619745      5.3640895919766614      12.742693306244997
   212   2      5.8053602154914863      5.9711111758505462      12.742693306244998
   213   2      7.3728859251464778      2.0420338368098681      12.742693306244997
   214   2      2.2684538593619941      9.8231677935223463      14.440993306244996
   215   2     -1.9179897845084941       10.43018937739623      14.440993306244998
   216   2    -0.35046407485350239      6.5011120383555534      14.440993306244996
   217   2     -3.0879313845335945      5.7407972896569186      14.428299227030998
   218   2      4.2956394014470387      7.8326089356592608      14.428299227030998
   219   2     -1.2077080169134484      13.181062983957951      14.428299227030999
   220   2      4.6354186154663859      10.199875491202604      11.031699227030998
   221   2     -3.4277105985529417      12.291687137204946      11.031699227030998
   222   2     -1.2077080169134484      4.2629065808665807      11.031699227030998
   223   2      4.6354186154663859      1.2817190881112333      12.729999227030998
   224   2      12.018989401447019      3.3735307341135754      12.729999227030998
   225   2      6.5156419830865318      8.7219847824122656      12.729999227030998
   226   2       10.81128138453357      7.6364373149801503      11.046200772968998
   227   2      3.4277105985529404      5.5446256689778073      11.046200772968998
   228   2      8.9310580169134255      0.1961716206791172      11.046200772968998
   229   2       3.087931384533591      12.095515516525836      12.744500772968998
   230   2     -4.2956394014470405      10.003703870523491      12.744500772968998
   231   2      1.2077080169134451      4.6552498222248024      12.744500772968998
   232   2       3.087931384533591       3.177359113434465      14.442800772968997
   233   2       11.15106059855292      1.0855474674321219      14.442800772968997
   234   2      8.9310580169134255      9.1143280237704865      14.442800772968999
   235   1     -7.7233499999999822      13.377234604637049 -2.3161554700319562e-30
   236   1 -1.7763568394002505e-15      17.836312806182733      1.6982999999999997
   237   1     -7.7233499999999822      22.295391007728419      3.3965999999999994
   238   1     -2.2388598357659975      25.821203494089985           1.68706099026
   239   1     -13.519038264286468      25.282192573580154      1.6870609902599998
   240   1     -7.4121518999474816      15.782776955515116      1.6870609902599993
   241   1     -2.2388598357659975      16.903047090998619      3.3853609902599993
   242   1      1.9276617357134942      16.364036170488784      3.3853609902599993
   243   1     0.31119810005249882      20.241855157060801      3.3853609902599993
   244   1     -9.9622098357659787      21.362125292544302      5.0836609902599985
   245   1     -5.7956882642864871      20.823114372034468      5.0836609902599985
   246   1     -7.4121518999474816      24.700933358606484      5.0836609902599985
   247   1     -5.4844901642339856      14.310500319821166      3.4078390097399991
   248   1      5.7956882642864826      14.849511240330999      3.4078390097399991
   249   1    -0.31119810005250237      24.348926858396037      3.4078390097399995
   250   1      2.2388598357659948      18.769578521366849    0.011239009739999998
   251   1     -1.9276617357134977      19.308589441876684    0.011239009740000137
   252   1    -0.31119810005250237      15.430770455304668    0.011239009739999915
   253   1     -5.4844901642339856      23.228656722912536      1.7095390097399996
   254   1     -9.6510117357134781      23.767667643422371      1.7095390097399998
   255   1     -8.0345481000524828      19.889848656850351      1.7095390097399996
   256   1     -10.827115873937075      19.112283027722615      1.6997276249459989
   257   1     -3.4148146893574385       21.19900490350259      1.6997276249459989
   258   1     -8.9281194367054315      26.574885091960052      1.6997276249459996
   259   1     -3.1037658739370944      23.571361229268302      3.3980276249459984
   260   1     -11.138164689357419      25.658083105048274      3.3980276249459989
   261   1     -8.9281194367054315      17.656728688868682      3.3980276249459989
   262   1     -3.1037658739370944      14.653204826176932   0.0014276249459992394
   263   1      4.3085353106425419      16.739926701956904   0.0014276249459992867
   264   1     -1.2047694367054502      22.115806890414369   0.0014276249459999055
   265   1      3.1037658739370908      21.019420786188537      3.3951723750539995
   266   1     -4.3085353106425419      18.932698910408565      3.3951723750539999
   267   1      1.2047694367054458        13.5568187219511      3.3951723750539995
   268   1     -4.6195841260628896       25.47849898773422      5.0934723750539996
   269   1     -12.031885310642522      23.391777111954248      5.0934723750539996
   270   1     -6.5185805632945346      18.015896923496786      5.0934723750539987
   271   1     -4.6195841260628896      16.560342584642854          1.696872375054
   272   1      3.4148146893574385       14.47362070886288      1.6968723750540002
   273   1      1.2047694367054458      22.474975125042469          1.696872375054
   274   2     -7.7233499999999822      13.377234604637049      2.5474499999999991
   275   2 -1.7763568394002505e-15      17.836312806182733      4.2457499999999984
   276   2     -7.7233499999999822      22.295391007728419     0.84914999999999996
   277   2      -2.268453859361995      25.849457818843135      4.2403066937549987
   278   2      -13.52871021549147      25.242436234969251      4.2403066937549987
   279   2     -7.3728859251464822      15.794278969372872      4.2403066937549987
   280   2      -2.268453859361995      16.931301415751765     0.84370669375499996
   281   2      1.9179897845084906      16.324279831877881      0.8437066937549994
   282   2     0.35046407485349818      20.253357170918555     0.84370669375500007
   283   2     -9.9918038593619762      21.390379617297448      2.5420066937549994
   284   2     -5.8053602154914898      20.783358033423564       2.542006693754999
   285   2     -7.3728859251464822      24.712435372464242      2.5420066937549994
   286   2     -5.4548961406379863      14.282245995068019     0.85459330624499918
   287   2      5.8053602154914863      14.889267578941903     0.85459330624499963
   288   2    -0.35046407485350262       24.33742484453828     0.85459330624499941
   289   2      2.2684538593619941      18.741324196613704      2.5528933062449988
   290   2     -1.9179897845084941      19.348345780487588      2.5528933062449992
   291   2    -0.35046407485350262       15.41926844144691      2.5528933062449988
   292   2     -5.4548961406379863       23.20040239815939       4.251193306244998
   293   2     -9.6413397845084745      23.807423982033271      4.2511933062449989
   294   2     -8.0738140748534821      19.878346642992597       4.251193306244998
   295   2     -10.811281384533576       19.11803189429396      4.2384992270309985
   296   2     -3.4277105985529417      21.209843540296305      4.2384992270309985
   297   2      -8.931058016913429      26.558297588594993      4.2384992270309994
   298   2     -3.0879313845335945      23.577110095839647     0.84189922703099984
   299   2     -11.151060598552922      25.668921741841988     0.84189922703100006
   300   2      -8.931058016913429      17.640141185503623     0.84189922703100006
   301   2     -3.0879313845335945      14.658953692748277      2.5401992270309992
   302   2      4.2956394014470387      16.750765338750618      2.5401992270309992
   303   2     -1.2077080169134486       22.09921938704931      2.5401992270309997
   304   2      3.0879313845335901      21.013671919617192     0.85640077296899964
   305   2     -4.2956394014470405       18.92186027361485     0.85640077296899997
   306   2      1.2077080169134451      13.573406225316159     0.85640077296899986
   307   2     -4.6354186154663894      25.472750121162878       2.554700772968999
   308   2     -12.018989401447021      23.380938475160534      2.5547007729689994
   309   2     -6.5156419830865353      18.032484426861846      2.5547007729689994
   310   2     -4.6354186154663894      16.554593718071509      4.2530007729689983
   311   2      3.4277105985529399      14.462782072069164      4.2530007729689983
   312   2      1.2077080169134451      22.491562628407529      4.2530007729689991
   313   1     -7.7233499999999831      13.377234604637053      5.0948999999999991
   314   1 -2.6645352591003757e-15       17.83631280618274      6.7931999999999988
   315   1     -7.7233499999999831      22.295391007728423      8.4914999999999985
   316   1     -2.2388598357659983      25.821203494089993      6.7819609902599991
   317   1     -13.519038264286468      25.282192573580158      6.7819609902599991
   318   1     -7.4121518999474825       15.78277695551512      6.7819609902599991
   319   1     -2.2388598357659983      16.903047090998619      8.4802609902599979
   320   1      1.9276617357134933      16.364036170488788      8.4802609902599979
   321   1     0.31119810005249793      20.241855157060805      8.4802609902599979
   322   1     -9.9622098357659787      21.362125292544306      10.178560990259998
   323   1      -5.795688264286488      20.823114372034475      10.178560990259998
   324   1     -7.4121518999474825      24.700933358606491      10.178560990259998
   325   1     -5.4844901642339865       14.31050031982117      8.5027390097399973
   326   1      5.7956882642864818      14.849511240331003      8.5027390097399973
   327   1    -0.31119810005250326      24.348926858396041      8.5027390097399991
   328   1      2.2388598357659939      18.769578521366853      5.1061390097399988
   329   1     -1.9276617357134986      19.308589441876688      5.1061390097399988
   330   1    -0.31119810005250326      15.430770455304671      5.1061390097399988
   331   1     -5.4844901642339865       23.22865672291254      6.8044390097399985
   332   1     -9.6510117357134781      23.767667643422371      6.8044390097399994
   333   1     -8.0345481000524828      19.889848656850354      6.8044390097399985
   334   1     -10.827115873937077      19.112283027722619      6.7946276249459983
   335   1     -3.4148146893574394       21.19900490350259      6.7946276249459983
   336   1     -8.9281194367054315      26.574885091960056      6.7946276249459991
   337   1     -3.1037658739370952      23.571361229268305      8.4929276249459971
   338   1     -11.138164689357421      25.658083105048277      8.4929276249459971
   339   1     -8.9281194367054315      17.656728688868686      8.4929276249459971
   340   1     -3.1037658739370952      14.653204826176935      5.0963276249459986
   341   1       4.308535310642541      16.739926701956907      5.0963276249459986
   342   1     -1.2047694367054511      22.115806890414369      5.0963276249459986
   343   1      3.1037658739370899       21.01942078618854      8.4900723750539981
   344   1     -4.3085353106425428      18.932698910408568      8.4900723750539981
   345   1      1.2047694367054449      13.556818721951103      8.4900723750539981
   346   1     -4.6195841260628896      25.478498987734227         10.188372375054
   347   1     -12.031885310642522      23.391777111954255         10.188372375054
   348   1     -6.5185805632945346       18.01589692349679      10.188372375053998
   349   1     -4.6195841260628896      16.560342584642854      6.7917723750539993
   350   1      3.4148146893574376      14.473620708862883      6.7917723750539993
   351   1      1.2047694367054449      22.474975125042473      6.7917723750539993
   352   2     -7.7233499999999831      13.377234604637053      7.6423499999999986
   353   2 -2.6645352591003757e-15       17.83631280618274      9.3406499999999983
   354   2     -7.7233499999999831      22.295391007728423      5.9440499999999989
   355   2     -2.2684538593619958      25.849457818843138      9.3352066937549978
   356   2     -13.528710215491472      25.242436234969254      9.3352066937549978
   357   2     -7.3728859251464831      15.794278969372876      9.3352066937549978