(written by ASE)

108 atoms
1 atom types

0.0       15.89076375180283  xlo xhi
0.0      15.848460961901715  ylo yhi
0.0      15.871464949623316  zlo zhi

Masses

     1      39.947999989723606 # Ar

Atoms # atomic

     1   1                       0                       0                       0
     2   1                       0      2.6414101603169526      2.6452441582705521
     3   1      2.6484606253004714                       0      2.6452441582705521
     4   1      2.6484606253004714      2.6414101603169526                       0
     5   1                       0                       0      5.2904883165411052
     6   1                       0      2.6414101603169526      7.9357324748116573
     7   1      2.6484606253004714                       0      7.9357324748116573
     8   1      2.6484606253004714      2.6414101603169526      5.2904883165411052
     9   1                       0                       0       10.58097663308221
    10   1                       0      2.6414101603169526      13.226220791352763
    11   1      2.6484606253004714                       0      13.226220791352763
    12   1      2.6484606253004714      2.6414101603169526       10.58097663308221
    13   1                       0      5.2828203206339062                       0
    14   1                       0      7.9242304809508584      2.6452441582705521
    15   1      2.6484606253004714      5.2828203206339062      2.6452441582705521
    16   1      2.6484606253004714      7.9242304809508584                       0
    17   1                       0      5.2828203206339062      5.2904883165411052
    18   1                       0      7.9242304809508584      7.9357324748116573
    19   1      2.6484606253004714      5.2828203206339062      7.9357324748116573
    20   1      2.6484606253004714      7.9242304809508584      5.2904883165411052
    21   1                       0      5.2828203206339062       10.58097663308221
    22   1                       0      7.9242304809508584      13.226220791352763
    23   1      2.6484606253004714      5.2828203206339062      13.226220791352763
    24   1      2.6484606253004714      7.9242304809508584       10.58097663308221
    25   1                       0      10.565640641267812                       0
    26   1                       0      13.207050801584765      2.6452441582705521
    27   1      2.6484606253004714      10.565640641267812      2.6452441582705521
    28   1      2.6484606253004714      13.207050801584765                       0
    29   1                       0      10.565640641267812      5.2904883165411052
    30   1                       0      13.207050801584765      7.9357324748116573
    31   1      2.6484606253004714      10.565640641267812      7.9357324748116573
    32   1      2.6484606253004714      13.207050801584765      5.2904883165411052
    33   1                       0      10.565640641267812       10.58097663308221
    34   1                       0      13.207050801584765      13.226220791352763
    35   1      2.6484606253004714      10.565640641267812      13.226220791352763
    36   1      2.6484606253004714      13.207050801584765       10.58097663308221
    37   1      5.2969212506009438                       0                       0
    38   1      5.2969212506009438      2.6414101603169526      2.6452441582705521
    39   1      7.9453818759014148                       0      2.6452441582705521
    40   1      7.9453818759014148      2.6414101603169526                       0
    41   1      5.2969212506009438                       0      5.2904883165411052
    42   1      5.2969212506009438      2.6414101603169526      7.9357324748116573
    43   1      7.9453818759014148                       0      7.9357324748116573
    44   1      7.9453818759014148      2.6414101603169526      5.2904883165411052
    45   1      5.2969212506009438                       0       10.58097663308221
    46   1      5.2969212506009438      2.6414101603169526      13.226220791352763
    47   1      7.9453818759014148                       0      13.226220791352763
    48   1      7.9453818759014148      2.6414101603169526       10.58097663308221
    49   1      5.2969212506009438      5.2828203206339062                       0
    50   1      5.2969212506009438      7.9242304809508584      2.6452441582705521
    51   1      7.9453818759014148      5.2828203206339062      2.6452441582705521
    52   1      7.9453818759014148      7.9242304809508584                       0
    53   1      5.2969212506009438      5.2828203206339062      5.2904883165411052
    54   1      5.2969212506009438      7.9242304809508584      7.9357324748116573
    55   1      7.9453818759014148      5.2828203206339062      7.9357324748116573
    56   1      7.9453818759014148      7.9242304809508584      5.2904883165411052
    57   1      5.2969212506009438      5.2828203206339062       10.58097663308221
    58   1      5.2969212506009438      7.9242304809508584      13.226220791352763
    59   1      7.9453818759014148      5.2828203206339062      13.226220791352763
    60   1      7.9453818759014148      7.9242304809508584       10.58097663308221
    61   1      5.2969212506009438      10.565640641267812                       0
    62   1      5.2969212506009438      13.207050801584765      2.6452441582705521
    63   1      7.9453818759014148      10.565640641267812      2.6452441582705521
    64   1      7.9453818759014148      13.207050801584765                       0
    65   1      5.2969212506009438      10.565640641267812      5.2904883165411052
    66   1      5.2969212506009438      13.207050801584765      7.9357324748116573
    67   1      7.9453818759014148      10.565640641267812      7.9357324748116573
    68   1      7.9453818759014148      13.207050801584765      5.2904883165411052
    69   1      5.2969212506009438      10.565640641267812       10.58097663308221
    70   1      5.2969212506009438      13.207050801584765      13.226220791352763
    71   1      7.9453818759014148      10.565640641267812      13.226220791352763
    72   1      7.9453818759014148      13.207050801584765       10.58097663308221
    73   1      10.593842501201888                       0                       0
    74   1      10.593842501201888      2.6414101603169526      2.6452441582705521
    75   1       13.24230312650236                       0      2.6452441582705521
    76   1       13.24230312650236      2.6414101603169526                       0
    77   1      10.593842501201888                       0      5.2904883165411052
    78   1      10.593842501201888      2.6414101603169526      7.9357324748116573
    79   1       13.24230312650236                       0      7.9357324748116573
    80   1       13.24230312650236      2.6414101603169526      5.2904883165411052
    81   1      10.593842501201888                       0       10.58097663308221
    82   1      10.593842501201888      2.6414101603169526      13.226220791352763
    83   1       13.24230312650236                       0      13.226220791352763
    84   1       13.24230312650236      2.6414101603169526       10.58097663308221
    85   1      10.593842501201888      5.2828203206339062                       0
    86   1      10.593842501201888      7.9242304809508584      2.6452441582705521
    87   1       13.24230312650236      5.2828203206339062      2.6452441582705521
    88   1       13.24230312650236      7.9242304809508584                       0
    89   1      10.593842501201888      5.2828203206339062      5.2904883165411052
    90   1      10.593842501201888      7.9242304809508584      7.9357324748116573
    91   1       13.24230312650236      5.2828203206339062      7.9357324748116573
    92   1       13.24230312650236      7.9242304809508584      5.2904883165411052
    93   1      10.593842501201888      5.2828203206339062       10.58097663308221
    94   1      10.593842501201888      7.9242304809508584      13.226220791352763
    95   1       13.24230312650236      5.2828203206339062      13.226220791352763
    96   1       13.24230312650236      7.9242304809508584       10.58097663308221
    97   1      10.593842501201888      10.565640641267812                       0
    98   1      10.593842501201888      13.207050801584765      2.6452441582705521
    99   1       13.24230312650236      10.565640641267812      2.6452441582705521
   100   1       13.24230312650236      13.207050801584765                       0
   101   1      10.593842501201888      10.565640641267812      5.2904883165411052
   102   1      10.593842501201888      13.207050801584765      7.9357324748116573
   103   1       13.24230312650236      10.565640641267812      7.9357324748116573
   104   1       13.24230312650236      13.207050801584765      5.2904883165411052
   105   1      10.593842501201888      10.565640641267812       10.58097663308221
   106   1      10.593842501201888      13.207050801584765      13.226220791352763
   107   1       13.24230312650236      10.565640641267812      13.226220791352763
   108   1       13.24230312650236      13.207050801584765       10.58097663308221
