(written by ASE)

108 atoms
1 atom types

0.0      15.863489972797352  xlo xhi
0.0      15.877344506299155  ylo yhi
0.0      15.875699771228515  zlo zhi

Masses

     1      39.947999989723606 # Ar

Atoms # atomic

     1   1                       0                       0                       0
     2   1                       0      2.6462240843831926      2.6459499618714188
     3   1      2.6439149954662251                       0      2.6459499618714188
     4   1      2.6439149954662251      2.6462240843831926                       0
     5   1                       0                       0      5.2918999237428386
     6   1                       0      2.6462240843831926      7.9378498856142574
     7   1      2.6439149954662251                       0      7.9378498856142574
     8   1      2.6439149954662251      2.6462240843831926      5.2918999237428386
     9   1                       0                       0      10.583799847485677
    10   1                       0      2.6462240843831926      13.229749809357097
    11   1      2.6439149954662251                       0      13.229749809357097
    12   1      2.6439149954662251      2.6462240843831926      10.583799847485677
    13   1                       0       5.292448168766386                       0
    14   1                       0      7.9386722531495781      2.6459499618714188
    15   1      2.6439149954662251       5.292448168766386      2.6459499618714188
    16   1      2.6439149954662251      7.9386722531495781                       0
    17   1                       0       5.292448168766386      5.2918999237428386
    18   1                       0      7.9386722531495781      7.9378498856142574
    19   1      2.6439149954662251       5.292448168766386      7.9378498856142574
    20   1      2.6439149954662251      7.9386722531495781      5.2918999237428386
    21   1                       0       5.292448168766386      10.583799847485677
    22   1                       0      7.9386722531495781      13.229749809357097
    23   1      2.6439149954662251       5.292448168766386      13.229749809357097
    24   1      2.6439149954662251      7.9386722531495781      10.583799847485677
    25   1                       0      10.584896337532772                       0
    26   1                       0      13.231120421915964      2.6459499618714188
    27   1      2.6439149954662251      10.584896337532772      2.6459499618714188
    28   1      2.6439149954662251      13.231120421915964                       0
    29   1                       0      10.584896337532772      5.2918999237428386
    30   1                       0      13.231120421915964      7.9378498856142574
    31   1      2.6439149954662251      10.584896337532772      7.9378498856142574
    32   1      2.6439149954662251      13.231120421915964      5.2918999237428386
    33   1                       0      10.584896337532772      10.583799847485677
    34   1                       0      13.231120421915964      13.229749809357097
    35   1      2.6439149954662251      10.584896337532772      13.229749809357097
    36   1      2.6439149954662251      13.231120421915964      10.583799847485677
    37   1      5.2878299909324511                       0                       0
    38   1      5.2878299909324511      2.6462240843831926      2.6459499618714188
    39   1      7.9317449863986766                       0      2.6459499618714188
    40   1      7.9317449863986766      2.6462240843831926                       0
    41   1      5.2878299909324511                       0      5.2918999237428386
    42   1      5.2878299909324511      2.6462240843831926      7.9378498856142574
    43   1      7.9317449863986766                       0      7.9378498856142574
    44   1      7.9317449863986766      2.6462240843831926      5.2918999237428386
    45   1      5.2878299909324511                       0      10.583799847485677
    46   1      5.2878299909324511      2.6462240843831926      13.229749809357097
    47   1      7.9317449863986766                       0      13.229749809357097
    48   1      7.9317449863986766      2.6462240843831926      10.583799847485677
    49   1      5.2878299909324511       5.292448168766386                       0
    50   1      5.2878299909324511      7.9386722531495781      2.6459499618714188
    51   1      7.9317449863986766       5.292448168766386      2.6459499618714188
    52   1      7.9317449863986766      7.9386722531495781                       0
    53   1      5.2878299909324511       5.292448168766386      5.2918999237428386
    54   1      5.2878299909324511      7.9386722531495781      7.9378498856142574
    55   1      7.9317449863986766       5.292448168766386      7.9378498856142574
    56   1      7.9317449863986766      7.9386722531495781      5.2918999237428386
    57   1      5.2878299909324511       5.292448168766386      10.583799847485677
    58   1      5.2878299909324511      7.9386722531495781      13.229749809357097
    59   1      7.9317449863986766       5.292448168766386      13.229749809357097
    60   1      7.9317449863986766      7.9386722531495781      10.583799847485677
    61   1      5.2878299909324511      10.584896337532772                       0
    62   1      5.2878299909324511      13.231120421915964      2.6459499618714188
    63   1      7.9317449863986766      10.584896337532772      2.6459499618714188
    64   1      7.9317449863986766      13.231120421915964                       0
    65   1      5.2878299909324511      10.584896337532772      5.2918999237428386
    66   1      5.2878299909324511      13.231120421915964      7.9378498856142574
    67   1      7.9317449863986766      10.584896337532772      7.9378498856142574
    68   1      7.9317449863986766      13.231120421915964      5.2918999237428386
    69   1      5.2878299909324511      10.584896337532772      10.583799847485677
    70   1      5.2878299909324511      13.231120421915964      13.229749809357097
    71   1      7.9317449863986766      10.584896337532772      13.229749809357097
    72   1      7.9317449863986766      13.231120421915964      10.583799847485677
    73   1      10.575659981864902                       0                       0
    74   1      10.575659981864902      2.6462240843831926      2.6459499618714188
    75   1       13.21957497733113                       0      2.6459499618714188
    76   1       13.21957497733113      2.6462240843831926                       0
    77   1      10.575659981864902                       0      5.2918999237428386
    78   1      10.575659981864902      2.6462240843831926      7.9378498856142574
    79   1       13.21957497733113                       0      7.9378498856142574
    80   1       13.21957497733113      2.6462240843831926      5.2918999237428386
    81   1      10.575659981864902                       0      10.583799847485677
    82   1      10.575659981864902      2.6462240843831926      13.229749809357097
    83   1       13.21957497733113                       0      13.229749809357097
    84   1       13.21957497733113      2.6462240843831926      10.583799847485677
    85   1      10.575659981864902       5.292448168766386                       0
    86   1      10.575659981864902      7.9386722531495781      2.6459499618714188
    87   1       13.21957497733113       5.292448168766386      2.6459499618714188
    88   1       13.21957497733113      7.9386722531495781                       0
    89   1      10.575659981864902       5.292448168766386      5.2918999237428386
    90   1      10.575659981864902      7.9386722531495781      7.9378498856142574
    91   1       13.21957497733113       5.292448168766386      7.9378498856142574
    92   1       13.21957497733113      7.9386722531495781      5.2918999237428386
    93   1      10.575659981864902       5.292448168766386      10.583799847485677
    94   1      10.575659981864902      7.9386722531495781      13.229749809357097
    95   1       13.21957497733113       5.292448168766386      13.229749809357097
    96   1       13.21957497733113      7.9386722531495781      10.583799847485677
    97   1      10.575659981864902      10.584896337532772                       0
    98   1      10.575659981864902      13.231120421915964      2.6459499618714188
    99   1       13.21957497733113      10.584896337532772      2.6459499618714188
   100   1       13.21957497733113      13.231120421915964                       0
   101   1      10.575659981864902      10.584896337532772      5.2918999237428386
   102   1      10.575659981864902      13.231120421915964      7.9378498856142574
   103   1       13.21957497733113      10.584896337532772      7.9378498856142574
   104   1       13.21957497733113      13.231120421915964      5.2918999237428386
   105   1      10.575659981864902      10.584896337532772      10.583799847485677
   106   1      10.575659981864902      13.231120421915964      13.229749809357097
   107   1       13.21957497733113      10.584896337532772      13.229749809357097
   108   1       13.21957497733113      13.231120421915964      10.583799847485677
