(written by ASE)

108 atoms
1 atom types

0.0      15.860971920660553  xlo xhi
0.0      15.874560024766767  ylo yhi
0.0      15.877085212233345  zlo zhi

Masses

     1      39.947999989723606 # Ar

Atoms # atomic

     1   1                       0                       0                       0
     2   1                       0      2.6457600041277947       2.646180868705557
     3   1      2.6434953201100919                       0       2.646180868705557
     4   1      2.6434953201100919      2.6457600041277947                       0
     5   1                       0                       0      5.2923617374111149
     6   1                       0      2.6457600041277947      7.9385426061166733
     7   1      2.6434953201100919                       0      7.9385426061166733
     8   1      2.6434953201100919      2.6457600041277947      5.2923617374111149
     9   1                       0                       0       10.58472347482223
    10   1                       0      2.6457600041277947       13.23090434352779
    11   1      2.6434953201100919                       0       13.23090434352779
    12   1      2.6434953201100919      2.6457600041277947       10.58472347482223
    13   1                       0      5.2915200082555902                       0
    14   1                       0      7.9372800123833844       2.646180868705557
    15   1      2.6434953201100919      5.2915200082555902       2.646180868705557
    16   1      2.6434953201100919      7.9372800123833844                       0
    17   1                       0      5.2915200082555902      5.2923617374111149
    18   1                       0      7.9372800123833844      7.9385426061166733
    19   1      2.6434953201100919      5.2915200082555902      7.9385426061166733
    20   1      2.6434953201100919      7.9372800123833844      5.2923617374111149
    21   1                       0      5.2915200082555902       10.58472347482223
    22   1                       0      7.9372800123833844       13.23090434352779
    23   1      2.6434953201100919      5.2915200082555902       13.23090434352779
    24   1      2.6434953201100919      7.9372800123833844       10.58472347482223
    25   1                       0       10.58304001651118                       0
    26   1                       0      13.228800020638975       2.646180868705557
    27   1      2.6434953201100919       10.58304001651118       2.646180868705557
    28   1      2.6434953201100919      13.228800020638975                       0
    29   1                       0       10.58304001651118      5.2923617374111149
    30   1                       0      13.228800020638975      7.9385426061166733
    31   1      2.6434953201100919       10.58304001651118      7.9385426061166733
    32   1      2.6434953201100919      13.228800020638975      5.2923617374111149
    33   1                       0       10.58304001651118       10.58472347482223
    34   1                       0      13.228800020638975       13.23090434352779
    35   1      2.6434953201100919       10.58304001651118       13.23090434352779
    36   1      2.6434953201100919      13.228800020638975       10.58472347482223
    37   1      5.2869906402201847                       0                       0
    38   1      5.2869906402201847      2.6457600041277947       2.646180868705557
    39   1      7.9304859603302775                       0       2.646180868705557
    40   1      7.9304859603302775      2.6457600041277947                       0
    41   1      5.2869906402201847                       0      5.2923617374111149
    42   1      5.2869906402201847      2.6457600041277947      7.9385426061166733
    43   1      7.9304859603302775                       0      7.9385426061166733
    44   1      7.9304859603302775      2.6457600041277947      5.2923617374111149
    45   1      5.2869906402201847                       0       10.58472347482223
    46   1      5.2869906402201847      2.6457600041277947       13.23090434352779
    47   1      7.9304859603302775                       0       13.23090434352779
    48   1      7.9304859603302775      2.6457600041277947       10.58472347482223
    49   1      5.2869906402201847      5.2915200082555902                       0
    50   1      5.2869906402201847      7.9372800123833844       2.646180868705557
    51   1      7.9304859603302775      5.2915200082555902       2.646180868705557
    52   1      7.9304859603302775      7.9372800123833844                       0
    53   1      5.2869906402201847      5.2915200082555902      5.2923617374111149
    54   1      5.2869906402201847      7.9372800123833844      7.9385426061166733
    55   1      7.9304859603302775      5.2915200082555902      7.9385426061166733
    56   1      7.9304859603302775      7.9372800123833844      5.2923617374111149
    57   1      5.2869906402201847      5.2915200082555902       10.58472347482223
    58   1      5.2869906402201847      7.9372800123833844       13.23090434352779
    59   1      7.9304859603302775      5.2915200082555902       13.23090434352779
    60   1      7.9304859603302775      7.9372800123833844       10.58472347482223
    61   1      5.2869906402201847       10.58304001651118                       0
    62   1      5.2869906402201847      13.228800020638975       2.646180868705557
    63   1      7.9304859603302775       10.58304001651118       2.646180868705557
    64   1      7.9304859603302775      13.228800020638975                       0
    65   1      5.2869906402201847       10.58304001651118      5.2923617374111149
    66   1      5.2869906402201847      13.228800020638975      7.9385426061166733
    67   1      7.9304859603302775       10.58304001651118      7.9385426061166733
    68   1      7.9304859603302775      13.228800020638975      5.2923617374111149
    69   1      5.2869906402201847       10.58304001651118       10.58472347482223
    70   1      5.2869906402201847      13.228800020638975       13.23090434352779
    71   1      7.9304859603302775       10.58304001651118       13.23090434352779
    72   1      7.9304859603302775      13.228800020638975       10.58472347482223
    73   1      10.573981280440369                       0                       0
    74   1      10.573981280440369      2.6457600041277947       2.646180868705557
    75   1      13.217476600550462                       0       2.646180868705557
    76   1      13.217476600550462      2.6457600041277947                       0
    77   1      10.573981280440369                       0      5.2923617374111149
    78   1      10.573981280440369      2.6457600041277947      7.9385426061166733
    79   1      13.217476600550462                       0      7.9385426061166733
    80   1      13.217476600550462      2.6457600041277947      5.2923617374111149
    81   1      10.573981280440369                       0       10.58472347482223
    82   1      10.573981280440369      2.6457600041277947       13.23090434352779
    83   1      13.217476600550462                       0       13.23090434352779
    84   1      13.217476600550462      2.6457600041277947       10.58472347482223
    85   1      10.573981280440369      5.2915200082555902                       0
    86   1      10.573981280440369      7.9372800123833844       2.646180868705557
    87   1      13.217476600550462      5.2915200082555902       2.646180868705557
    88   1      13.217476600550462      7.9372800123833844                       0
    89   1      10.573981280440369      5.2915200082555902      5.2923617374111149
    90   1      10.573981280440369      7.9372800123833844      7.9385426061166733
    91   1      13.217476600550462      5.2915200082555902      7.9385426061166733
    92   1      13.217476600550462      7.9372800123833844      5.2923617374111149
    93   1      10.573981280440369      5.2915200082555902       10.58472347482223
    94   1      10.573981280440369      7.9372800123833844       13.23090434352779
    95   1      13.217476600550462      5.2915200082555902       13.23090434352779
    96   1      13.217476600550462      7.9372800123833844       10.58472347482223
    97   1      10.573981280440369       10.58304001651118                       0
    98   1      10.573981280440369      13.228800020638975       2.646180868705557
    99   1      13.217476600550462       10.58304001651118       2.646180868705557
   100   1      13.217476600550462      13.228800020638975                       0
   101   1      10.573981280440369       10.58304001651118      5.2923617374111149
   102   1      10.573981280440369      13.228800020638975      7.9385426061166733
   103   1      13.217476600550462       10.58304001651118      7.9385426061166733
   104   1      13.217476600550462      13.228800020638975      5.2923617374111149
   105   1      10.573981280440369       10.58304001651118       10.58472347482223
   106   1      10.573981280440369      13.228800020638975       13.23090434352779
   107   1      13.217476600550462       10.58304001651118       13.23090434352779
   108   1      13.217476600550462      13.228800020638975       10.58472347482223
