(written by ASE)

108 atoms
1 atom types

0.0      15.888859809252731  xlo xhi
0.0      15.837895651146278  ylo yhi
0.0      15.878846847239345  zlo zhi

Masses

     1      39.947999989723606 # Ar

Atoms # atomic

     1   1                       0                       0                       0
     2   1                       0      2.6396492751910454        2.64647447453989
     3   1      2.6481433015421216                       0        2.64647447453989
     4   1      2.6481433015421216      2.6396492751910454                       0
     5   1                       0                       0       5.292948949079781
     6   1                       0      2.6396492751910454      7.9394234236196715
     7   1      2.6481433015421216                       0      7.9394234236196715
     8   1      2.6481433015421216      2.6396492751910454       5.292948949079781
     9   1                       0                       0      10.585897898159562
    10   1                       0      2.6396492751910454      13.232372372699453
    11   1      2.6481433015421216                       0      13.232372372699453
    12   1      2.6481433015421216      2.6396492751910454      10.585897898159562
    13   1                       0      5.2792985503820917                       0
    14   1                       0       7.918947825573138        2.64647447453989
    15   1      2.6481433015421216      5.2792985503820917        2.64647447453989
    16   1      2.6481433015421216       7.918947825573138                       0
    17   1                       0      5.2792985503820917       5.292948949079781
    18   1                       0       7.918947825573138      7.9394234236196715
    19   1      2.6481433015421216      5.2792985503820917      7.9394234236196715
    20   1      2.6481433015421216       7.918947825573138       5.292948949079781
    21   1                       0      5.2792985503820917      10.585897898159562
    22   1                       0       7.918947825573138      13.232372372699453
    23   1      2.6481433015421216      5.2792985503820917      13.232372372699453
    24   1      2.6481433015421216       7.918947825573138      10.585897898159562
    25   1                       0      10.558597100764183                       0
    26   1                       0      13.198246375955231        2.64647447453989
    27   1      2.6481433015421216      10.558597100764183        2.64647447453989
    28   1      2.6481433015421216      13.198246375955231                       0
    29   1                       0      10.558597100764183       5.292948949079781
    30   1                       0      13.198246375955231      7.9394234236196715
    31   1      2.6481433015421216      10.558597100764183      7.9394234236196715
    32   1      2.6481433015421216      13.198246375955231       5.292948949079781
    33   1                       0      10.558597100764183      10.585897898159562
    34   1                       0      13.198246375955231      13.232372372699453
    35   1      2.6481433015421216      10.558597100764183      13.232372372699453
    36   1      2.6481433015421216      13.198246375955231      10.585897898159562
    37   1      5.2962866030842441                       0                       0
    38   1      5.2962866030842441      2.6396492751910454        2.64647447453989
    39   1      7.9444299046263653                       0        2.64647447453989
    40   1      7.9444299046263653      2.6396492751910454                       0
    41   1      5.2962866030842441                       0       5.292948949079781
    42   1      5.2962866030842441      2.6396492751910454      7.9394234236196715
    43   1      7.9444299046263653                       0      7.9394234236196715
    44   1      7.9444299046263653      2.6396492751910454       5.292948949079781
    45   1      5.2962866030842441                       0      10.585897898159562
    46   1      5.2962866030842441      2.6396492751910454      13.232372372699453
    47   1      7.9444299046263653                       0      13.232372372699453
    48   1      7.9444299046263653      2.6396492751910454      10.585897898159562
    49   1      5.2962866030842441      5.2792985503820917                       0
    50   1      5.2962866030842441       7.918947825573138        2.64647447453989
    51   1      7.9444299046263653      5.2792985503820917        2.64647447453989
    52   1      7.9444299046263653       7.918947825573138                       0
    53   1      5.2962866030842441      5.2792985503820917       5.292948949079781
    54   1      5.2962866030842441       7.918947825573138      7.9394234236196715
    55   1      7.9444299046263653      5.2792985503820917      7.9394234236196715
    56   1      7.9444299046263653       7.918947825573138       5.292948949079781
    57   1      5.2962866030842441      5.2792985503820917      10.585897898159562
    58   1      5.2962866030842441       7.918947825573138      13.232372372699453
    59   1      7.9444299046263653      5.2792985503820917      13.232372372699453
    60   1      7.9444299046263653       7.918947825573138      10.585897898159562
    61   1      5.2962866030842441      10.558597100764183                       0
    62   1      5.2962866030842441      13.198246375955231        2.64647447453989
    63   1      7.9444299046263653      10.558597100764183        2.64647447453989
    64   1      7.9444299046263653      13.198246375955231                       0
    65   1      5.2962866030842441      10.558597100764183       5.292948949079781
    66   1      5.2962866030842441      13.198246375955231      7.9394234236196715
    67   1      7.9444299046263653      10.558597100764183      7.9394234236196715
    68   1      7.9444299046263653      13.198246375955231       5.292948949079781
    69   1      5.2962866030842441      10.558597100764183      10.585897898159562
    70   1      5.2962866030842441      13.198246375955231      13.232372372699453
    71   1      7.9444299046263653      10.558597100764183      13.232372372699453
    72   1      7.9444299046263653      13.198246375955231      10.585897898159562
    73   1      10.592573206168488                       0                       0
    74   1      10.592573206168488      2.6396492751910454        2.64647447453989
    75   1       13.24071650771061                       0        2.64647447453989
    76   1       13.24071650771061      2.6396492751910454                       0
    77   1      10.592573206168488                       0       5.292948949079781
    78   1      10.592573206168488      2.6396492751910454      7.9394234236196715
    79   1       13.24071650771061                       0      7.9394234236196715
    80   1       13.24071650771061      2.6396492751910454       5.292948949079781
    81   1      10.592573206168488                       0      10.585897898159562
    82   1      10.592573206168488      2.6396492751910454      13.232372372699453
    83   1       13.24071650771061                       0      13.232372372699453
    84   1       13.24071650771061      2.6396492751910454      10.585897898159562
    85   1      10.592573206168488      5.2792985503820917                       0
    86   1      10.592573206168488       7.918947825573138        2.64647447453989
    87   1       13.24071650771061      5.2792985503820917        2.64647447453989
    88   1       13.24071650771061       7.918947825573138                       0
    89   1      10.592573206168488      5.2792985503820917       5.292948949079781
    90   1      10.592573206168488       7.918947825573138      7.9394234236196715
    91   1       13.24071650771061      5.2792985503820917      7.9394234236196715
    92   1       13.24071650771061       7.918947825573138       5.292948949079781
    93   1      10.592573206168488      5.2792985503820917      10.585897898159562
    94   1      10.592573206168488       7.918947825573138      13.232372372699453
    95   1       13.24071650771061      5.2792985503820917      13.232372372699453
    96   1       13.24071650771061       7.918947825573138      10.585897898159562
    97   1      10.592573206168488      10.558597100764183                       0
    98   1      10.592573206168488      13.198246375955231        2.64647447453989
    99   1       13.24071650771061      10.558597100764183        2.64647447453989
   100   1       13.24071650771061      13.198246375955231                       0
   101   1      10.592573206168488      10.558597100764183       5.292948949079781
   102   1      10.592573206168488      13.198246375955231      7.9394234236196715
   103   1       13.24071650771061      10.558597100764183      7.9394234236196715
   104   1       13.24071650771061      13.198246375955231       5.292948949079781
   105   1      10.592573206168488      10.558597100764183      10.585897898159562
   106   1      10.592573206168488      13.198246375955231      13.232372372699453
   107   1       13.24071650771061      10.558597100764183      13.232372372699453
   108   1       13.24071650771061      13.198246375955231      10.585897898159562
