(written by ASE)

108 atoms
1 atom types

0.0      15.878438301723188  xlo xhi
0.0      15.880246306399588  ylo yhi
0.0      15.855436403045669  zlo zhi

Masses

     1      39.947999989723606 # Ar

Atoms # atomic

     1   1                       0                       0                       0
     2   1                       0      2.6467077177332641      2.6425727338409444
     3   1      2.6464063836205307                       0      2.6425727338409444
     4   1      2.6464063836205307      2.6467077177332641                       0
     5   1                       0                       0      5.2851454676818896
     6   1                       0      2.6467077177332641      7.9277182015228345
     7   1      2.6464063836205307                       0      7.9277182015228345
     8   1      2.6464063836205307      2.6467077177332641      5.2851454676818896
     9   1                       0                       0      10.570290935363779
    10   1                       0      2.6467077177332641      13.212863669204726
    11   1      2.6464063836205307                       0      13.212863669204726
    12   1      2.6464063836205307      2.6467077177332641      10.570290935363779
    13   1                       0       5.293415435466529                       0
    14   1                       0       7.940123153199794      2.6425727338409444
    15   1      2.6464063836205307       5.293415435466529      2.6425727338409444
    16   1      2.6464063836205307       7.940123153199794                       0
    17   1                       0       5.293415435466529      5.2851454676818896
    18   1                       0       7.940123153199794      7.9277182015228345
    19   1      2.6464063836205307       5.293415435466529      7.9277182015228345
    20   1      2.6464063836205307       7.940123153199794      5.2851454676818896
    21   1                       0       5.293415435466529      10.570290935363779
    22   1                       0       7.940123153199794      13.212863669204726
    23   1      2.6464063836205307       5.293415435466529      13.212863669204726
    24   1      2.6464063836205307       7.940123153199794      10.570290935363779
    25   1                       0      10.586830870933058                       0
    26   1                       0      13.233538588666324      2.6425727338409444
    27   1      2.6464063836205307      10.586830870933058      2.6425727338409444
    28   1      2.6464063836205307      13.233538588666324                       0
    29   1                       0      10.586830870933058      5.2851454676818896
    30   1                       0      13.233538588666324      7.9277182015228345
    31   1      2.6464063836205307      10.586830870933058      7.9277182015228345
    32   1      2.6464063836205307      13.233538588666324      5.2851454676818896
    33   1                       0      10.586830870933058      10.570290935363779
    34   1                       0      13.233538588666324      13.212863669204726
    35   1      2.6464063836205307      10.586830870933058      13.212863669204726
    36   1      2.6464063836205307      13.233538588666324      10.570290935363779
    37   1      5.2928127672410623                       0                       0
    38   1      5.2928127672410623      2.6467077177332641      2.6425727338409444
    39   1      7.9392191508615939                       0      2.6425727338409444
    40   1      7.9392191508615939      2.6467077177332641                       0
    41   1      5.2928127672410623                       0      5.2851454676818896
    42   1      5.2928127672410623      2.6467077177332641      7.9277182015228345
    43   1      7.9392191508615939                       0      7.9277182015228345
    44   1      7.9392191508615939      2.6467077177332641      5.2851454676818896
    45   1      5.2928127672410623                       0      10.570290935363779
    46   1      5.2928127672410623      2.6467077177332641      13.212863669204726
    47   1      7.9392191508615939                       0      13.212863669204726
    48   1      7.9392191508615939      2.6467077177332641      10.570290935363779
    49   1      5.2928127672410623       5.293415435466529                       0
    50   1      5.2928127672410623       7.940123153199794      2.6425727338409444
    51   1      7.9392191508615939       5.293415435466529      2.6425727338409444
    52   1      7.9392191508615939       7.940123153199794                       0
    53   1      5.2928127672410623       5.293415435466529      5.2851454676818896
    54   1      5.2928127672410623       7.940123153199794      7.9277182015228345
    55   1      7.9392191508615939       5.293415435466529      7.9277182015228345
    56   1      7.9392191508615939       7.940123153199794      5.2851454676818896
    57   1      5.2928127672410623       5.293415435466529      10.570290935363779
    58   1      5.2928127672410623       7.940123153199794      13.212863669204726
    59   1      7.9392191508615939       5.293415435466529      13.212863669204726
    60   1      7.9392191508615939       7.940123153199794      10.570290935363779
    61   1      5.2928127672410623      10.586830870933058                       0
    62   1      5.2928127672410623      13.233538588666324      2.6425727338409444
    63   1      7.9392191508615939      10.586830870933058      2.6425727338409444
    64   1      7.9392191508615939      13.233538588666324                       0
    65   1      5.2928127672410623      10.586830870933058      5.2851454676818896
    66   1      5.2928127672410623      13.233538588666324      7.9277182015228345
    67   1      7.9392191508615939      10.586830870933058      7.9277182015228345
    68   1      7.9392191508615939      13.233538588666324      5.2851454676818896
    69   1      5.2928127672410623      10.586830870933058      10.570290935363779
    70   1      5.2928127672410623      13.233538588666324      13.212863669204726
    71   1      7.9392191508615939      10.586830870933058      13.212863669204726
    72   1      7.9392191508615939      13.233538588666324      10.570290935363779
    73   1      10.585625534482125                       0                       0
    74   1      10.585625534482125      2.6467077177332641      2.6425727338409444
    75   1      13.232031918102658                       0      2.6425727338409444
    76   1      13.232031918102658      2.6467077177332641                       0
    77   1      10.585625534482125                       0      5.2851454676818896
    78   1      10.585625534482125      2.6467077177332641      7.9277182015228345
    79   1      13.232031918102658                       0      7.9277182015228345
    80   1      13.232031918102658      2.6467077177332641      5.2851454676818896
    81   1      10.585625534482125                       0      10.570290935363779
    82   1      10.585625534482125      2.6467077177332641      13.212863669204726
    83   1      13.232031918102658                       0      13.212863669204726
    84   1      13.232031918102658      2.6467077177332641      10.570290935363779
    85   1      10.585625534482125       5.293415435466529                       0
    86   1      10.585625534482125       7.940123153199794      2.6425727338409444
    87   1      13.232031918102658       5.293415435466529      2.6425727338409444
    88   1      13.232031918102658       7.940123153199794                       0
    89   1      10.585625534482125       5.293415435466529      5.2851454676818896
    90   1      10.585625534482125       7.940123153199794      7.9277182015228345
    91   1      13.232031918102658       5.293415435466529      7.9277182015228345
    92   1      13.232031918102658       7.940123153199794      5.2851454676818896
    93   1      10.585625534482125       5.293415435466529      10.570290935363779
    94   1      10.585625534482125       7.940123153199794      13.212863669204726
    95   1      13.232031918102658       5.293415435466529      13.212863669204726
    96   1      13.232031918102658       7.940123153199794      10.570290935363779
    97   1      10.585625534482125      10.586830870933058                       0
    98   1      10.585625534482125      13.233538588666324      2.6425727338409444
    99   1      13.232031918102658      10.586830870933058      2.6425727338409444
   100   1      13.232031918102658      13.233538588666324                       0
   101   1      10.585625534482125      10.586830870933058      5.2851454676818896
   102   1      10.585625534482125      13.233538588666324      7.9277182015228345
   103   1      13.232031918102658      10.586830870933058      7.9277182015228345
   104   1      13.232031918102658      13.233538588666324      5.2851454676818896
   105   1      10.585625534482125      10.586830870933058      10.570290935363779
   106   1      10.585625534482125      13.233538588666324      13.212863669204726
   107   1      13.232031918102658      10.586830870933058      13.212863669204726
   108   1      13.232031918102658      13.233538588666324      10.570290935363779
