(written by ASE)

500 atoms
1 atom types

0.0      26.455808285793555  xlo xhi
0.0      26.445219829141507  ylo yhi
0.0      26.454233597697002  zlo zhi

Masses

     1      39.947999989723606 # Ar

Atoms # atomic

     1   1                       0                       0                       0
     2   1                       0      2.6445219829141497      2.6454233597696999
     3   1      2.6455808285793547                       0      2.6454233597696999
     4   1      2.6455808285793547      2.6445219829141497                       0
     5   1                       0                       0      5.2908467195394007
     6   1                       0      2.6445219829141497      7.9362700793091001
     7   1      2.6455808285793547                       0      7.9362700793091001
     8   1      2.6455808285793547      2.6445219829141497      5.2908467195394007
     9   1                       0                       0      10.581693439078801
    10   1                       0      2.6445219829141497      13.227116798848501
    11   1      2.6455808285793547                       0      13.227116798848501
    12   1      2.6455808285793547      2.6445219829141497      10.581693439078801
    13   1                       0                       0        15.8725401586182
    14   1                       0      2.6445219829141497      18.517963518387898
    15   1      2.6455808285793547                       0      18.517963518387898
    16   1      2.6455808285793547      2.6445219829141497        15.8725401586182
    17   1                       0                       0      21.163386878157603
    18   1                       0      2.6445219829141497        23.8088102379273
    19   1      2.6455808285793547                       0        23.8088102379273
    20   1      2.6455808285793547      2.6445219829141497      21.163386878157603
    21   1                       0      5.2890439658283004                       0
    22   1                       0      7.9335659487424515      2.6454233597696999
    23   1      2.6455808285793547      5.2890439658283004      2.6454233597696999
    24   1      2.6455808285793547      7.9335659487424515                       0
    25   1                       0      5.2890439658283004      5.2908467195394007
    26   1                       0      7.9335659487424515      7.9362700793091001
    27   1      2.6455808285793547      5.2890439658283004      7.9362700793091001
    28   1      2.6455808285793547      7.9335659487424515      5.2908467195394007
    29   1                       0      5.2890439658283004      10.581693439078801
    30   1                       0      7.9335659487424515      13.227116798848501
    31   1      2.6455808285793547      5.2890439658283004      13.227116798848501
    32   1      2.6455808285793547      7.9335659487424515      10.581693439078801
    33   1                       0      5.2890439658283004        15.8725401586182
    34   1                       0      7.9335659487424515      18.517963518387898
    35   1      2.6455808285793547      5.2890439658283004      18.517963518387898
    36   1      2.6455808285793547      7.9335659487424515        15.8725401586182
    37   1                       0      5.2890439658283004      21.163386878157603
    38   1                       0      7.9335659487424515        23.8088102379273
    39   1      2.6455808285793547      5.2890439658283004        23.8088102379273
    40   1      2.6455808285793547      7.9335659487424515      21.163386878157603
    41   1                       0      10.578087931656601                       0
    42   1                       0      13.222609914570754      2.6454233597696999
    43   1      2.6455808285793547      10.578087931656601      2.6454233597696999
    44   1      2.6455808285793547      13.222609914570754                       0
    45   1                       0      10.578087931656601      5.2908467195394007
    46   1                       0      13.222609914570754      7.9362700793091001
    47   1      2.6455808285793547      10.578087931656601      7.9362700793091001
    48   1      2.6455808285793547      13.222609914570754      5.2908467195394007
    49   1                       0      10.578087931656601      10.581693439078801
    50   1                       0      13.222609914570754      13.227116798848501
    51   1      2.6455808285793547      10.578087931656601      13.227116798848501
    52   1      2.6455808285793547      13.222609914570754      10.581693439078801
    53   1                       0      10.578087931656601        15.8725401586182
    54   1                       0      13.222609914570754      18.517963518387898
    55   1      2.6455808285793547      10.578087931656601      18.517963518387898
    56   1      2.6455808285793547      13.222609914570754        15.8725401586182
    57   1                       0      10.578087931656601      21.163386878157603
    58   1                       0      13.222609914570754        23.8088102379273
    59   1      2.6455808285793547      10.578087931656601        23.8088102379273
    60   1      2.6455808285793547      13.222609914570754      21.163386878157603
    61   1                       0      15.867131897484903                       0
    62   1                       0      18.511653880399049      2.6454233597696999
    63   1      2.6455808285793547      15.867131897484903      2.6454233597696999
    64   1      2.6455808285793547      18.511653880399049                       0
    65   1                       0      15.867131897484903      5.2908467195394007
    66   1                       0      18.511653880399049      7.9362700793091001
    67   1      2.6455808285793547      15.867131897484903      7.9362700793091001
    68   1      2.6455808285793547      18.511653880399049      5.2908467195394007
    69   1                       0      15.867131897484903      10.581693439078801
    70   1                       0      18.511653880399049      13.227116798848501
    71   1      2.6455808285793547      15.867131897484903      13.227116798848501
    72   1      2.6455808285793547      18.511653880399049      10.581693439078801
    73   1                       0      15.867131897484903        15.8725401586182
    74   1                       0      18.511653880399049      18.517963518387898
    75   1      2.6455808285793547      15.867131897484903      18.517963518387898
    76   1      2.6455808285793547      18.511653880399049        15.8725401586182
    77   1                       0      15.867131897484903      21.163386878157603
    78   1                       0      18.511653880399049        23.8088102379273
    79   1      2.6455808285793547      15.867131897484903        23.8088102379273
    80   1      2.6455808285793547      18.511653880399049      21.163386878157603
    81   1                       0      21.156175863313202                       0
    82   1                       0      23.800697846227351      2.6454233597696999
    83   1      2.6455808285793547      21.156175863313202      2.6454233597696999
    84   1      2.6455808285793547      23.800697846227351                       0
    85   1                       0      21.156175863313202      5.2908467195394007
    86   1                       0      23.800697846227351      7.9362700793091001
    87   1      2.6455808285793547      21.156175863313202      7.9362700793091001
    88   1      2.6455808285793547      23.800697846227351      5.2908467195394007
    89   1                       0      21.156175863313202      10.581693439078801
    90   1                       0      23.800697846227351      13.227116798848501
    91   1      2.6455808285793547      21.156175863313202      13.227116798848501
    92   1      2.6455808285793547      23.800697846227351      10.581693439078801
    93   1                       0      21.156175863313202        15.8725401586182
    94   1                       0      23.800697846227351      18.517963518387898
    95   1      2.6455808285793547      21.156175863313202      18.517963518387898
    96   1      2.6455808285793547      23.800697846227351        15.8725401586182
    97   1                       0      21.156175863313202      21.163386878157603
    98   1                       0      23.800697846227351        23.8088102379273
    99   1      2.6455808285793547      21.156175863313202        23.8088102379273
   100   1      2.6455808285793547      23.800697846227351      21.163386878157603
   101   1      5.2911616571587103                       0                       0
   102   1      5.2911616571587103      2.6445219829141497      2.6454233597696999
   103   1      7.9367424857380655                       0      2.6454233597696999
   104   1      7.9367424857380655      2.6445219829141497                       0
   105   1      5.2911616571587103                       0      5.2908467195394007
   106   1      5.2911616571587103      2.6445219829141497      7.9362700793091001
   107   1      7.9367424857380655                       0      7.9362700793091001
   108   1      7.9367424857380655      2.6445219829141497      5.2908467195394007
   109   1      5.2911616571587103                       0      10.581693439078801
   110   1      5.2911616571587103      2.6445219829141497      13.227116798848501
   111   1      7.9367424857380655                       0      13.227116798848501
   112   1      7.9367424857380655      2.6445219829141497      10.581693439078801
   113   1      5.2911616571587103                       0        15.8725401586182
   114   1      5.2911616571587103      2.6445219829141497      18.517963518387898
   115   1      7.9367424857380655                       0      18.517963518387898
   116   1      7.9367424857380655      2.6445219829141497        15.8725401586182
   117   1      5.2911616571587103                       0      21.163386878157603
   118   1      5.2911616571587103      2.6445219829141497        23.8088102379273
   119   1      7.9367424857380655                       0        23.8088102379273
   120   1      7.9367424857380655      2.6445219829141497      21.163386878157603
   121   1      5.2911616571587103      5.2890439658283004                       0
   122   1      5.2911616571587103      7.9335659487424515      2.6454233597696999
   123   1      7.9367424857380655      5.2890439658283004      2.6454233597696999
   124   1      7.9367424857380655      7.9335659487424515                       0
   125   1      5.2911616571587103      5.2890439658283004      5.2908467195394007
   126   1      5.2911616571587103      7.9335659487424515      7.9362700793091001
   127   1      7.9367424857380655      5.2890439658283004      7.9362700793091001
   128   1      7.9367424857380655      7.9335659487424515      5.2908467195394007
   129   1      5.2911616571587103      5.2890439658283004      10.581693439078801
   130   1      5.2911616571587103      7.9335659487424515      13.227116798848501
   131   1      7.9367424857380655      5.2890439658283004      13.227116798848501
   132   1      7.9367424857380655      7.9335659487424515      10.581693439078801
   133   1      5.2911616571587103      5.2890439658283004        15.8725401586182
   134   1      5.2911616571587103      7.9335659487424515      18.517963518387898
   135   1      7.9367424857380655      5.2890439658283004      18.517963518387898
   136   1      7.9367424857380655      7.9335659487424515        15.8725401586182
   137   1      5.2911616571587103      5.2890439658283004      21.163386878157603
   138   1      5.2911616571587103      7.9335659487424515        23.8088102379273
   139   1      7.9367424857380655      5.2890439658283004        23.8088102379273
   140   1      7.9367424857380655      7.9335659487424515      21.163386878157603
   141   1      5.2911616571587103      10.578087931656601                       0
   142   1      5.2911616571587103      13.222609914570754      2.6454233597696999
   143   1      7.9367424857380655      10.578087931656601      2.6454233597696999
   144   1      7.9367424857380655      13.222609914570754                       0
   145   1      5.2911616571587103      10.578087931656601      5.2908467195394007
   146   1      5.2911616571587103      13.222609914570754      7.9362700793091001
   147   1      7.9367424857380655      10.578087931656601      7.9362700793091001
   148   1      7.9367424857380655      13.222609914570754      5.2908467195394007
   149   1      5.2911616571587103      10.578087931656601      10.581693439078801
   150   1      5.2911616571587103      13.222609914570754      13.227116798848501
   151   1      7.9367424857380655      10.578087931656601      13.227116798848501
   152   1      7.9367424857380655      13.222609914570754      10.581693439078801
   153   1      5.2911616571587103      10.578087931656601        15.8725401586182
   154   1      5.2911616571587103      13.222609914570754      18.517963518387898
   155   1      7.9367424857380655      10.578087931656601      18.517963518387898
   156   1      7.9367424857380655      13.222609914570754        15.8725401586182
   157   1      5.2911616571587103      10.578087931656601      21.163386878157603
   158   1      5.2911616571587103      13.222609914570754        23.8088102379273
   159   1      7.9367424857380655      10.578087931656601        23.8088102379273
   160   1      7.9367424857380655      13.222609914570754      21.163386878157603
   161   1      5.2911616571587103      15.867131897484903                       0
   162   1      5.2911616571587103      18.511653880399049      2.6454233597696999
   163   1      7.9367424857380655      15.867131897484903      2.6454233597696999
   164   1      7.9367424857380655      18.511653880399049                       0
   165   1      5.2911616571587103      15.867131897484903      5.2908467195394007
   166   1      5.2911616571587103      18.511653880399049      7.9362700793091001
   167   1      7.9367424857380655      15.867131897484903      7.9362700793091001
   168   1      7.9367424857380655      18.511653880399049      5.2908467195394007
   169   1      5.2911616571587103      15.867131897484903      10.581693439078801
   170   1      5.2911616571587103      18.511653880399049      13.227116798848501
   171   1      7.9367424857380655      15.867131897484903      13.227116798848501
   172   1      7.9367424857380655      18.511653880399049      10.581693439078801
   173   1      5.2911616571587103      15.867131897484903        15.8725401586182
   174   1      5.2911616571587103      18.511653880399049      18.517963518387898
   175   1      7.9367424857380655      15.867131897484903      18.517963518387898
   176   1      7.9367424857380655      18.511653880399049        15.8725401586182
   177   1      5.2911616571587103      15.867131897484903      21.163386878157603
   178   1      5.2911616571587103      18.511653880399049        23.8088102379273
   179   1      7.9367424857380655      15.867131897484903        23.8088102379273
   180   1      7.9367424857380655      18.511653880399049      21.163386878157603
   181   1      5.2911616571587103      21.156175863313202                       0
   182   1      5.2911616571587103      23.800697846227351      2.6454233597696999
   183   1      7.9367424857380655      21.156175863313202      2.6454233597696999
   184   1      7.9367424857380655      23.800697846227351                       0
   185   1      5.2911616571587103      21.156175863313202      5.2908467195394007
   186   1      5.2911616571587103      23.800697846227351      7.9362700793091001
   187   1      7.9367424857380655      21.156175863313202      7.9362700793091001
   188   1      7.9367424857380655      23.800697846227351      5.2908467195394007
   189   1      5.2911616571587103      21.156175863313202      10.581693439078801
   190   1      5.2911616571587103      23.800697846227351      13.227116798848501
   191   1      7.9367424857380655      21.156175863313202      13.227116798848501
   192   1      7.9367424857380655      23.800697846227351      10.581693439078801
   193   1      5.2911616571587103      21.156175863313202        15.8725401586182
   194   1      5.2911616571587103      23.800697846227351      18.517963518387898
   195   1      7.9367424857380655      21.156175863313202      18.517963518387898
   196   1      7.9367424857380655      23.800697846227351        15.8725401586182
   197   1      5.2911616571587103      21.156175863313202      21.163386878157603
   198   1      5.2911616571587103      23.800697846227351        23.8088102379273
   199   1      7.9367424857380655      21.156175863313202        23.8088102379273
   200   1      7.9367424857380655      23.800697846227351      21.163386878157603
   201   1      10.582323314317421                       0                       0
   202   1      10.582323314317421      2.6445219829141497      2.6454233597696999
   203   1      13.227904142896776                       0      2.6454233597696999
   204   1      13.227904142896776      2.6445219829141497                       0
   205   1      10.582323314317421                       0      5.2908467195394007
   206   1      10.582323314317421      2.6445219829141497      7.9362700793091001
   207   1      13.227904142896776                       0      7.9362700793091001
   208   1      13.227904142896776      2.6445219829141497      5.2908467195394007
   209   1      10.582323314317421                       0      10.581693439078801
   210   1      10.582323314317421      2.6445219829141497      13.227116798848501
   211   1      13.227904142896776                       0      13.227116798848501
   212   1      13.227904142896776      2.6445219829141497      10.581693439078801
   213   1      10.582323314317421                       0        15.8725401586182
   214   1      10.582323314317421      2.6445219829141497      18.517963518387898
   215   1      13.227904142896776                       0      18.517963518387898
   216   1      13.227904142896776      2.6445219829141497        15.8725401586182
   217   1      10.582323314317421                       0      21.163386878157603
   218   1      10.582323314317421      2.6445219829141497        23.8088102379273
   219   1      13.227904142896776                       0        23.8088102379273
   220   1      13.227904142896776      2.6445219829141497      21.163386878157603
   221   1      10.582323314317421      5.2890439658283004                       0
   222   1      10.582323314317421      7.9335659487424515      2.6454233597696999
   223   1      13.227904142896776      5.2890439658283004      2.6454233597696999
   224   1      13.227904142896776      7.9335659487424515                       0
   225   1      10.582323314317421      5.2890439658283004      5.2908467195394007
   226   1      10.582323314317421      7.9335659487424515      7.9362700793091001
   227   1      13.227904142896776      5.2890439658283004      7.9362700793091001
   228   1      13.227904142896776      7.9335659487424515      5.2908467195394007
   229   1      10.582323314317421      5.2890439658283004      10.581693439078801
   230   1      10.582323314317421      7.9335659487424515      13.227116798848501
   231   1      13.227904142896776      5.2890439658283004      13.227116798848501
   232   1      13.227904142896776      7.9335659487424515      10.581693439078801
   233   1      10.582323314317421      5.2890439658283004        15.8725401586182
   234   1      10.582323314317421      7.9335659487424515      18.517963518387898
   235   1      13.227904142896776      5.2890439658283004      18.517963518387898
   236   1      13.227904142896776      7.9335659487424515        15.8725401586182
   237   1      10.582323314317421      5.2890439658283004      21.163386878157603
   238   1      10.582323314317421      7.9335659487424515        23.8088102379273
   239   1      13.227904142896776      5.2890439658283004        23.8088102379273
   240   1      13.227904142896776      7.9335659487424515      21.163386878157603
   241   1      10.582323314317421      10.578087931656601                       0
   242   1      10.582323314317421      13.222609914570754      2.6454233597696999
   243   1      13.227904142896776      10.578087931656601      2.6454233597696999
   244   1      13.227904142896776      13.222609914570754                       0
   245   1      10.582323314317421      10.578087931656601      5.2908467195394007
   246   1      10.582323314317421      13.222609914570754      7.9362700793091001
   247   1      13.227904142896776      10.578087931656601      7.9362700793091001
   248   1      13.227904142896776      13.222609914570754      5.2908467195394007
   249   1      10.582323314317421      10.578087931656601      10.581693439078801
   250   1      10.582323314317421      13.222609914570754      13.227116798848501
   251   1      13.227904142896776      10.578087931656601      13.227116798848501
   252   1      13.227904142896776      13.222609914570754      10.581693439078801
   253   1      10.582323314317421      10.578087931656601        15.8725401586182
   254   1      10.582323314317421      13.222609914570754      18.517963518387898
   255   1      13.227904142896776      10.578087931656601      18.517963518387898
   256   1      13.227904142896776      13.222609914570754        15.8725401586182
   257   1      10.582323314317421      10.578087931656601      21.163386878157603
   258   1      10.582323314317421      13.222609914570754        23.8088102379273
   259   1      13.227904142896776      10.578087931656601        23.8088102379273
   260   1      13.227904142896776      13.222609914570754      21.163386878157603
   261   1      10.582323314317421      15.867131897484903                       0
   262   1      10.582323314317421      18.511653880399049      2.6454233597696999
   263   1      13.227904142896776      15.867131897484903      2.6454233597696999
   264   1      13.227904142896776      18.511653880399049                       0
   265   1      10.582323314317421      15.867131897484903      5.2908467195394007
   266   1      10.582323314317421      18.511653880399049      7.9362700793091001
   267   1      13.227904142896776      15.867131897484903      7.9362700793091001
   268   1      13.227904142896776      18.511653880399049      5.2908467195394007
   269   1      10.582323314317421      15.867131897484903      10.581693439078801
   270   1      10.582323314317421      18.511653880399049      13.227116798848501
   271   1      13.227904142896776      15.867131897484903      13.227116798848501
   272   1      13.227904142896776      18.511653880399049      10.581693439078801
   273   1      10.582323314317421      15.867131897484903        15.8725401586182
   274   1      10.582323314317421      18.511653880399049      18.517963518387898
   275   1      13.227904142896776      15.867131897484903      18.517963518387898
   276   1      13.227904142896776      18.511653880399049        15.8725401586182
   277   1      10.582323314317421      15.867131897484903      21.163386878157603
   278   1      10.582323314317421      18.511653880399049        23.8088102379273
   279   1      13.227904142896776      15.867131897484903        23.8088102379273
   280   1      13.227904142896776      18.511653880399049      21.163386878157603
   281   1      10.582323314317421      21.156175863313202                       0
   282   1      10.582323314317421      23.800697846227351      2.6454233597696999
   283   1      13.227904142896776      21.156175863313202      2.6454233597696999
   284   1      13.227904142896776      23.800697846227351                       0
   285   1      10.582323314317421      21.156175863313202      5.2908467195394007
   286   1      10.582323314317421      23.800697846227351      7.9362700793091001
   287   1      13.227904142896776      21.156175863313202      7.9362700793091001
   288   1      13.227904142896776      23.800697846227351      5.2908467195394007
   289   1      10.582323314317421      21.156175863313202      10.581693439078801
   290   1      10.582323314317421      23.800697846227351      13.227116798848501
   291   1      13.227904142896776      21.156175863313202      13.227116798848501
   292   1      13.227904142896776      23.800697846227351      10.581693439078801
   293   1      10.582323314317421      21.156175863313202        15.8725401586182
   294   1      10.582323314317421      23.800697846227351      18.517963518387898
   295   1      13.227904142896776      21.156175863313202      18.517963518387898
   296   1      13.227904142896776      23.800697846227351        15.8725401586182
   297   1      10.582323314317421      21.156175863313202      21.163386878157603
   298   1      10.582323314317421      23.800697846227351        23.8088102379273
   299   1      13.227904142896776      21.156175863313202        23.8088102379273
   300   1      13.227904142896776      23.800697846227351      21.163386878157603
   301   1      15.873484971476131                       0                       0
   302   1      15.873484971476131      2.6445219829141497      2.6454233597696999
   303   1      18.519065800055483                       0      2.6454233597696999
   304   1      18.519065800055483      2.6445219829141497                       0
   305   1      15.873484971476131                       0      5.2908467195394007
   306   1      15.873484971476131      2.6445219829141497      7.9362700793091001
   307   1      18.519065800055483                       0      7.9362700793091001
   308   1      18.519065800055483      2.6445219829141497      5.2908467195394007
   309   1      15.873484971476131                       0      10.581693439078801
   310   1      15.873484971476131      2.6445219829141497      13.227116798848501
   311   1      18.519065800055483                       0      13.227116798848501
   312   1      18.519065800055483      2.6445219829141497      10.581693439078801
   313   1      15.873484971476131                       0        15.8725401586182
   314   1      15.873484971476131      2.6445219829141497      18.517963518387898
   315   1      18.519065800055483                       0      18.517963518387898
   316   1      18.519065800055483      2.6445219829141497        15.8725401586182
   317   1      15.873484971476131                       0      21.163386878157603
   318   1      15.873484971476131      2.6445219829141497        23.8088102379273
   319   1      18.519065800055483                       0        23.8088102379273
   320   1      18.519065800055483      2.6445219829141497      21.163386878157603
   321   1      15.873484971476131      5.2890439658283004                       0
   322   1      15.873484971476131      7.9335659487424515      2.6454233597696999
   323   1      18.519065800055483      5.2890439658283004      2.6454233597696999
   324   1      18.519065800055483      7.9335659487424515                       0
   325   1      15.873484971476131      5.2890439658283004      5.2908467195394007
   326   1      15.873484971476131      7.9335659487424515      7.9362700793091001
   327   1      18.519065800055483      5.2890439658283004      7.9362700793091001
   328   1      18.519065800055483      7.9335659487424515      5.2908467195394007
   329   1      15.873484971476131      5.2890439658283004      10.581693439078801
   330   1      15.873484971476131      7.9335659487424515      13.227116798848501
   331   1      18.519065800055483      5.2890439658283004      13.227116798848501
   332   1      18.519065800055483      7.9335659487424515      10.581693439078801
   333   1      15.873484971476131      5.2890439658283004        15.8725401586182
   334   1      15.873484971476131      7.9335659487424515      18.517963518387898
   335   1      18.519065800055483      5.2890439658283004      18.517963518387898
   336   1      18.519065800055483      7.9335659487424515        15.8725401586182
   337   1      15.873484971476131      5.2890439658283004      21.163386878157603
   338   1      15.873484971476131      7.9335659487424515        23.8088102379273
   339   1      18.519065800055483      5.2890439658283004        23.8088102379273
   340   1      18.519065800055483      7.9335659487424515      21.163386878157603
   341   1      15.873484971476131      10.578087931656601                       0
   342   1      15.873484971476131      13.222609914570754      2.6454233597696999
   343   1      18.519065800055483      10.578087931656601      2.6454233597696999
   344   1      18.519065800055483      13.222609914570754                       0
   345   1      15.873484971476131      10.578087931656601      5.2908467195394007
   346   1      15.873484971476131      13.222609914570754      7.9362700793091001
   347   1      18.519065800055483      10.578087931656601      7.9362700793091001
   348   1      18.519065800055483      13.222609914570754      5.2908467195394007
   349   1      15.873484971476131      10.578087931656601      10.581693439078801
   350   1      15.873484971476131      13.222609914570754      13.227116798848501
   351   1      18.519065800055483      10.578087931656601      13.227116798848501
   352   1      18.519065800055483      13.222609914570754      10.581693439078801
   353   1      15.873484971476131      10.578087931656601        15.8725401586182
   354   1      15.873484971476131      13.222609914570754      18.517963518387898
   355   1      18.519065800055483      10.578087931656601      18.517963518387898
   356   1      18.519065800055483      13.222609914570754        15.8725401586182
   357   1      15.873484971476131      10.578087931656601      21.163386878157603
   358   1      15.873484971476131      13.222609914570754        23.8088102379273