(written by ASE)

108 atoms
1 atom types

0.0      15.896924716399374  xlo xhi
0.0      15.858208876861935  ylo yhi
0.0       15.85569588293478  zlo zhi

Masses

     1      39.947999989723606 # Ar

Atoms # atomic

     1   1                       0                       0                       0
     2   1                       0      2.6430348128103227      2.6426159804891296
     3   1      2.6494874527332284                       0      2.6426159804891296
     4   1      2.6494874527332284      2.6430348128103227                       0
     5   1                       0                       0      5.2852319609782601
     6   1                       0      2.6430348128103227      7.9278479414673901
     7   1      2.6494874527332284                       0      7.9278479414673901
     8   1      2.6494874527332284      2.6430348128103227      5.2852319609782601
     9   1                       0                       0       10.57046392195652
    10   1                       0      2.6430348128103227      13.213079902445651
    11   1      2.6494874527332284                       0      13.213079902445651
    12   1      2.6494874527332284      2.6430348128103227       10.57046392195652
    13   1                       0      5.2860696256206463                       0
    14   1                       0      7.9291044384309686      2.6426159804891296
    15   1      2.6494874527332284      5.2860696256206463      2.6426159804891296
    16   1      2.6494874527332284      7.9291044384309686                       0
    17   1                       0      5.2860696256206463      5.2852319609782601
    18   1                       0      7.9291044384309686      7.9278479414673901
    19   1      2.6494874527332284      5.2860696256206463      7.9278479414673901
    20   1      2.6494874527332284      7.9291044384309686      5.2852319609782601
    21   1                       0      5.2860696256206463       10.57046392195652
    22   1                       0      7.9291044384309686      13.213079902445651
    23   1      2.6494874527332284      5.2860696256206463      13.213079902445651
    24   1      2.6494874527332284      7.9291044384309686       10.57046392195652
    25   1                       0      10.572139251241293                       0
    26   1                       0      13.215174064051615      2.6426159804891296
    27   1      2.6494874527332284      10.572139251241293      2.6426159804891296
    28   1      2.6494874527332284      13.215174064051615                       0
    29   1                       0      10.572139251241293      5.2852319609782601
    30   1                       0      13.215174064051615      7.9278479414673901
    31   1      2.6494874527332284      10.572139251241293      7.9278479414673901
    32   1      2.6494874527332284      13.215174064051615      5.2852319609782601
    33   1                       0      10.572139251241293       10.57046392195652
    34   1                       0      13.215174064051615      13.213079902445651
    35   1      2.6494874527332284      10.572139251241293      13.213079902445651
    36   1      2.6494874527332284      13.215174064051615       10.57046392195652
    37   1      5.2989749054664577                       0                       0
    38   1      5.2989749054664577      2.6430348128103227      2.6426159804891296
    39   1      7.9484623581996869                       0      2.6426159804891296
    40   1      7.9484623581996869      2.6430348128103227                       0
    41   1      5.2989749054664577                       0      5.2852319609782601
    42   1      5.2989749054664577      2.6430348128103227      7.9278479414673901
    43   1      7.9484623581996869                       0      7.9278479414673901
    44   1      7.9484623581996869      2.6430348128103227      5.2852319609782601
    45   1      5.2989749054664577                       0       10.57046392195652
    46   1      5.2989749054664577      2.6430348128103227      13.213079902445651
    47   1      7.9484623581996869                       0      13.213079902445651
    48   1      7.9484623581996869      2.6430348128103227       10.57046392195652
    49   1      5.2989749054664577      5.2860696256206463                       0
    50   1      5.2989749054664577      7.9291044384309686      2.6426159804891296
    51   1      7.9484623581996869      5.2860696256206463      2.6426159804891296
    52   1      7.9484623581996869      7.9291044384309686                       0
    53   1      5.2989749054664577      5.2860696256206463      5.2852319609782601
    54   1      5.2989749054664577      7.9291044384309686      7.9278479414673901
    55   1      7.9484623581996869      5.2860696256206463      7.9278479414673901
    56   1      7.9484623581996869      7.9291044384309686      5.2852319609782601
    57   1      5.2989749054664577      5.2860696256206463       10.57046392195652
    58   1      5.2989749054664577      7.9291044384309686      13.213079902445651
    59   1      7.9484623581996869      5.2860696256206463      13.213079902445651
    60   1      7.9484623581996869      7.9291044384309686       10.57046392195652
    61   1      5.2989749054664577      10.572139251241293                       0
    62   1      5.2989749054664577      13.215174064051615      2.6426159804891296
    63   1      7.9484623581996869      10.572139251241293      2.6426159804891296
    64   1      7.9484623581996869      13.215174064051615                       0
    65   1      5.2989749054664577      10.572139251241293      5.2852319609782601
    66   1      5.2989749054664577      13.215174064051615      7.9278479414673901
    67   1      7.9484623581996869      10.572139251241293      7.9278479414673901
    68   1      7.9484623581996869      13.215174064051615      5.2852319609782601
    69   1      5.2989749054664577      10.572139251241293       10.57046392195652
    70   1      5.2989749054664577      13.215174064051615      13.213079902445651
    71   1      7.9484623581996869      10.572139251241293      13.213079902445651
    72   1      7.9484623581996869      13.215174064051615       10.57046392195652
    73   1      10.597949810932915                       0                       0
    74   1      10.597949810932915      2.6430348128103227      2.6426159804891296
    75   1      13.247437263666145                       0      2.6426159804891296
    76   1      13.247437263666145      2.6430348128103227                       0
    77   1      10.597949810932915                       0      5.2852319609782601
    78   1      10.597949810932915      2.6430348128103227      7.9278479414673901
    79   1      13.247437263666145                       0      7.9278479414673901
    80   1      13.247437263666145      2.6430348128103227      5.2852319609782601
    81   1      10.597949810932915                       0       10.57046392195652
    82   1      10.597949810932915      2.6430348128103227      13.213079902445651
    83   1      13.247437263666145                       0      13.213079902445651
    84   1      13.247437263666145      2.6430348128103227       10.57046392195652
    85   1      10.597949810932915      5.2860696256206463                       0
    86   1      10.597949810932915      7.9291044384309686      2.6426159804891296
    87   1      13.247437263666145      5.2860696256206463      2.6426159804891296
    88   1      13.247437263666145      7.9291044384309686                       0
    89   1      10.597949810932915      5.2860696256206463      5.2852319609782601
    90   1      10.597949810932915      7.9291044384309686      7.9278479414673901
    91   1      13.247437263666145      5.2860696256206463      7.9278479414673901
    92   1      13.247437263666145      7.9291044384309686      5.2852319609782601
    93   1      10.597949810932915      5.2860696256206463       10.57046392195652
    94   1      10.597949810932915      7.9291044384309686      13.213079902445651
    95   1      13.247437263666145      5.2860696256206463      13.213079902445651
    96   1      13.247437263666145      7.9291044384309686       10.57046392195652
    97   1      10.597949810932915      10.572139251241293                       0
    98   1      10.597949810932915      13.215174064051615      2.6426159804891296
    99   1      13.247437263666145      10.572139251241293      2.6426159804891296
   100   1      13.247437263666145      13.215174064051615                       0
   101   1      10.597949810932915      10.572139251241293      5.2852319609782601
   102   1      10.597949810932915      13.215174064051615      7.9278479414673901
   103   1      13.247437263666145      10.572139251241293      7.9278479414673901
   104   1      13.247437263666145      13.215174064051615      5.2852319609782601
   105   1      10.597949810932915      10.572139251241293       10.57046392195652
   106   1      10.597949810932915      13.215174064051615      13.213079902445651
   107   1      13.247437263666145      10.572139251241293      13.213079902445651
   108   1      13.247437263666145      13.215174064051615       10.57046392195652
