(written by ASE)

108 atoms
1 atom types

0.0      15.879331530849797  xlo xhi
0.0      15.883671802380579  ylo yhi
0.0      15.850004112884392  zlo zhi

Masses

     1      39.947999989723606 # Ar

Atoms # atomic

     1   1                       0                       0                       0
     2   1                       0      2.6472786337300964      2.6416673521473983
     3   1      2.6465552551416325                       0      2.6416673521473983
     4   1      2.6465552551416325      2.6472786337300964                       0
     5   1                       0                       0      5.2833347042947976
     6   1                       0      2.6472786337300964      7.9250020564421959
     7   1      2.6465552551416325                       0      7.9250020564421959
     8   1      2.6465552551416325      2.6472786337300964      5.2833347042947976
     9   1                       0                       0      10.566669408589595
    10   1                       0      2.6472786337300964      13.208336760736994
    11   1      2.6465552551416325                       0      13.208336760736994
    12   1      2.6465552551416325      2.6472786337300964      10.566669408589595
    13   1                       0      5.2945572674601937                       0
    14   1                       0      7.9418359011902906      2.6416673521473983
    15   1      2.6465552551416325      5.2945572674601937      2.6416673521473983
    16   1      2.6465552551416325      7.9418359011902906                       0
    17   1                       0      5.2945572674601937      5.2833347042947976
    18   1                       0      7.9418359011902906      7.9250020564421959
    19   1      2.6465552551416325      5.2945572674601937      7.9250020564421959
    20   1      2.6465552551416325      7.9418359011902906      5.2833347042947976
    21   1                       0      5.2945572674601937      10.566669408589595
    22   1                       0      7.9418359011902906      13.208336760736994
    23   1      2.6465552551416325      5.2945572674601937      13.208336760736994
    24   1      2.6465552551416325      7.9418359011902906      10.566669408589595
    25   1                       0      10.589114534920387                       0
    26   1                       0      13.236393168650485      2.6416673521473983
    27   1      2.6465552551416325      10.589114534920387      2.6416673521473983
    28   1      2.6465552551416325      13.236393168650485                       0
    29   1                       0      10.589114534920387      5.2833347042947976
    30   1                       0      13.236393168650485      7.9250020564421959
    31   1      2.6465552551416325      10.589114534920387      7.9250020564421959
    32   1      2.6465552551416325      13.236393168650485      5.2833347042947976
    33   1                       0      10.589114534920387      10.566669408589595
    34   1                       0      13.236393168650485      13.208336760736994
    35   1      2.6465552551416325      10.589114534920387      13.208336760736994
    36   1      2.6465552551416325      13.236393168650485      10.566669408589595
    37   1      5.2931105102832658                       0                       0
    38   1      5.2931105102832658      2.6472786337300964      2.6416673521473983
    39   1      7.9396657654248992                       0      2.6416673521473983
    40   1      7.9396657654248992      2.6472786337300964                       0
    41   1      5.2931105102832658                       0      5.2833347042947976
    42   1      5.2931105102832658      2.6472786337300964      7.9250020564421959
    43   1      7.9396657654248992                       0      7.9250020564421959
    44   1      7.9396657654248992      2.6472786337300964      5.2833347042947976
    45   1      5.2931105102832658                       0      10.566669408589595
    46   1      5.2931105102832658      2.6472786337300964      13.208336760736994
    47   1      7.9396657654248992                       0      13.208336760736994
    48   1      7.9396657654248992      2.6472786337300964      10.566669408589595
    49   1      5.2931105102832658      5.2945572674601937                       0
    50   1      5.2931105102832658      7.9418359011902906      2.6416673521473983
    51   1      7.9396657654248992      5.2945572674601937      2.6416673521473983
    52   1      7.9396657654248992      7.9418359011902906                       0
    53   1      5.2931105102832658      5.2945572674601937      5.2833347042947976
    54   1      5.2931105102832658      7.9418359011902906      7.9250020564421959
    55   1      7.9396657654248992      5.2945572674601937      7.9250020564421959
    56   1      7.9396657654248992      7.9418359011902906      5.2833347042947976
    57   1      5.2931105102832658      5.2945572674601937      10.566669408589595
    58   1      5.2931105102832658      7.9418359011902906      13.208336760736994
    59   1      7.9396657654248992      5.2945572674601937      13.208336760736994
    60   1      7.9396657654248992      7.9418359011902906      10.566669408589595
    61   1      5.2931105102832658      10.589114534920387                       0
    62   1      5.2931105102832658      13.236393168650485      2.6416673521473983
    63   1      7.9396657654248992      10.589114534920387      2.6416673521473983
    64   1      7.9396657654248992      13.236393168650485                       0
    65   1      5.2931105102832658      10.589114534920387      5.2833347042947976
    66   1      5.2931105102832658      13.236393168650485      7.9250020564421959
    67   1      7.9396657654248992      10.589114534920387      7.9250020564421959
    68   1      7.9396657654248992      13.236393168650485      5.2833347042947976
    69   1      5.2931105102832658      10.589114534920387      10.566669408589595
    70   1      5.2931105102832658      13.236393168650485      13.208336760736994
    71   1      7.9396657654248992      10.589114534920387      13.208336760736994
    72   1      7.9396657654248992      13.236393168650485      10.566669408589595
    73   1      10.586221020566532                       0                       0
    74   1      10.586221020566532      2.6472786337300964      2.6416673521473983
    75   1      13.232776275708165                       0      2.6416673521473983
    76   1      13.232776275708165      2.6472786337300964                       0
    77   1      10.586221020566532                       0      5.2833347042947976
    78   1      10.586221020566532      2.6472786337300964      7.9250020564421959
    79   1      13.232776275708165                       0      7.9250020564421959
    80   1      13.232776275708165      2.6472786337300964      5.2833347042947976
    81   1      10.586221020566532                       0      10.566669408589595
    82   1      10.586221020566532      2.6472786337300964      13.208336760736994
    83   1      13.232776275708165                       0      13.208336760736994
    84   1      13.232776275708165      2.6472786337300964      10.566669408589595
    85   1      10.586221020566532      5.2945572674601937                       0
    86   1      10.586221020566532      7.9418359011902906      2.6416673521473983
    87   1      13.232776275708165      5.2945572674601937      2.6416673521473983
    88   1      13.232776275708165      7.9418359011902906                       0
    89   1      10.586221020566532      5.2945572674601937      5.2833347042947976
    90   1      10.586221020566532      7.9418359011902906      7.9250020564421959
    91   1      13.232776275708165      5.2945572674601937      7.9250020564421959
    92   1      13.232776275708165      7.9418359011902906      5.2833347042947976
    93   1      10.586221020566532      5.2945572674601937      10.566669408589595
    94   1      10.586221020566532      7.9418359011902906      13.208336760736994
    95   1      13.232776275708165      5.2945572674601937      13.208336760736994
    96   1      13.232776275708165      7.9418359011902906      10.566669408589595
    97   1      10.586221020566532      10.589114534920387                       0
    98   1      10.586221020566532      13.236393168650485      2.6416673521473983
    99   1      13.232776275708165      10.589114534920387      2.6416673521473983
   100   1      13.232776275708165      13.236393168650485                       0
   101   1      10.586221020566532      10.589114534920387      5.2833347042947976
   102   1      10.586221020566532      13.236393168650485      7.9250020564421959
   103   1      13.232776275708165      10.589114534920387      7.9250020564421959
   104   1      13.232776275708165      13.236393168650485      5.2833347042947976
   105   1      10.586221020566532      10.589114534920387      10.566669408589595
   106   1      10.586221020566532      13.236393168650485      13.208336760736994
   107   1      13.232776275708165      10.589114534920387      13.208336760736994
   108   1      13.232776275708165      13.236393168650485      10.566669408589595
