(written by ASE)

108 atoms
1 atom types

0.0      15.837241295189392  xlo xhi
0.0      15.881882186704267  ylo yhi
0.0       15.89144698693344  zlo zhi

Masses

     1      39.947999989723606 # Ar

Atoms # atomic

     1   1                       0                       0                       0
     2   1                       0      2.6469803644507111      2.6485744978222394
     3   1      2.6395402158648986                       0      2.6485744978222394
     4   1      2.6395402158648986      2.6469803644507111                       0
     5   1                       0                       0      5.2971489956444797
     6   1                       0      2.6469803644507111        7.94572349346672
     7   1      2.6395402158648986                       0        7.94572349346672
     8   1      2.6395402158648986      2.6469803644507111      5.2971489956444797
     9   1                       0                       0      10.594297991288959
    10   1                       0      2.6469803644507111      13.242872489111202
    11   1      2.6395402158648986                       0      13.242872489111202
    12   1      2.6395402158648986      2.6469803644507111      10.594297991288959
    13   1                       0       5.293960728901423                       0
    14   1                       0      7.9409410933521336      2.6485744978222394
    15   1      2.6395402158648986       5.293960728901423      2.6485744978222394
    16   1      2.6395402158648986      7.9409410933521336                       0
    17   1                       0       5.293960728901423      5.2971489956444797
    18   1                       0      7.9409410933521336        7.94572349346672
    19   1      2.6395402158648986       5.293960728901423        7.94572349346672
    20   1      2.6395402158648986      7.9409410933521336      5.2971489956444797
    21   1                       0       5.293960728901423      10.594297991288959
    22   1                       0      7.9409410933521336      13.242872489111202
    23   1      2.6395402158648986       5.293960728901423      13.242872489111202
    24   1      2.6395402158648986      7.9409410933521336      10.594297991288959
    25   1                       0      10.587921457802846                       0
    26   1                       0      13.234901822253558      2.6485744978222394
    27   1      2.6395402158648986      10.587921457802846      2.6485744978222394
    28   1      2.6395402158648986      13.234901822253558                       0
    29   1                       0      10.587921457802846      5.2971489956444797
    30   1                       0      13.234901822253558        7.94572349346672
    31   1      2.6395402158648986      10.587921457802846        7.94572349346672
    32   1      2.6395402158648986      13.234901822253558      5.2971489956444797
    33   1                       0      10.587921457802846      10.594297991288959
    34   1                       0      13.234901822253558      13.242872489111202
    35   1      2.6395402158648986      10.587921457802846      13.242872489111202
    36   1      2.6395402158648986      13.234901822253558      10.594297991288959
    37   1      5.2790804317297981                       0                       0
    38   1      5.2790804317297981      2.6469803644507111      2.6485744978222394
    39   1      7.9186206475946967                       0      2.6485744978222394
    40   1      7.9186206475946967      2.6469803644507111                       0
    41   1      5.2790804317297981                       0      5.2971489956444797
    42   1      5.2790804317297981      2.6469803644507111        7.94572349346672
    43   1      7.9186206475946967                       0        7.94572349346672
    44   1      7.9186206475946967      2.6469803644507111      5.2971489956444797
    45   1      5.2790804317297981                       0      10.594297991288959
    46   1      5.2790804317297981      2.6469803644507111      13.242872489111202
    47   1      7.9186206475946967                       0      13.242872489111202
    48   1      7.9186206475946967      2.6469803644507111      10.594297991288959
    49   1      5.2790804317297981       5.293960728901423                       0
    50   1      5.2790804317297981      7.9409410933521336      2.6485744978222394
    51   1      7.9186206475946967       5.293960728901423      2.6485744978222394
    52   1      7.9186206475946967      7.9409410933521336                       0
    53   1      5.2790804317297981       5.293960728901423      5.2971489956444797
    54   1      5.2790804317297981      7.9409410933521336        7.94572349346672
    55   1      7.9186206475946967       5.293960728901423        7.94572349346672
    56   1      7.9186206475946967      7.9409410933521336      5.2971489956444797
    57   1      5.2790804317297981       5.293960728901423      10.594297991288959
    58   1      5.2790804317297981      7.9409410933521336      13.242872489111202
    59   1      7.9186206475946967       5.293960728901423      13.242872489111202
    60   1      7.9186206475946967      7.9409410933521336      10.594297991288959
    61   1      5.2790804317297981      10.587921457802846                       0
    62   1      5.2790804317297981      13.234901822253558      2.6485744978222394
    63   1      7.9186206475946967      10.587921457802846      2.6485744978222394
    64   1      7.9186206475946967      13.234901822253558                       0
    65   1      5.2790804317297981      10.587921457802846      5.2971489956444797
    66   1      5.2790804317297981      13.234901822253558        7.94572349346672
    67   1      7.9186206475946967      10.587921457802846        7.94572349346672
    68   1      7.9186206475946967      13.234901822253558      5.2971489956444797
    69   1      5.2790804317297981      10.587921457802846      10.594297991288959
    70   1      5.2790804317297981      13.234901822253558      13.242872489111202
    71   1      7.9186206475946967      10.587921457802846      13.242872489111202
    72   1      7.9186206475946967      13.234901822253558      10.594297991288959
    73   1      10.558160863459596                       0                       0
    74   1      10.558160863459596      2.6469803644507111      2.6485744978222394
    75   1      13.197701079324496                       0      2.6485744978222394
    76   1      13.197701079324496      2.6469803644507111                       0
    77   1      10.558160863459596                       0      5.2971489956444797
    78   1      10.558160863459596      2.6469803644507111        7.94572349346672
    79   1      13.197701079324496                       0        7.94572349346672
    80   1      13.197701079324496      2.6469803644507111      5.2971489956444797
    81   1      10.558160863459596                       0      10.594297991288959
    82   1      10.558160863459596      2.6469803644507111      13.242872489111202
    83   1      13.197701079324496                       0      13.242872489111202
    84   1      13.197701079324496      2.6469803644507111      10.594297991288959
    85   1      10.558160863459596       5.293960728901423                       0
    86   1      10.558160863459596      7.9409410933521336      2.6485744978222394
    87   1      13.197701079324496       5.293960728901423      2.6485744978222394
    88   1      13.197701079324496      7.9409410933521336                       0
    89   1      10.558160863459596       5.293960728901423      5.2971489956444797
    90   1      10.558160863459596      7.9409410933521336        7.94572349346672
    91   1      13.197701079324496       5.293960728901423        7.94572349346672
    92   1      13.197701079324496      7.9409410933521336      5.2971489956444797
    93   1      10.558160863459596       5.293960728901423      10.594297991288959
    94   1      10.558160863459596      7.9409410933521336      13.242872489111202
    95   1      13.197701079324496       5.293960728901423      13.242872489111202
    96   1      13.197701079324496      7.9409410933521336      10.594297991288959
    97   1      10.558160863459596      10.587921457802846                       0
    98   1      10.558160863459596      13.234901822253558      2.6485744978222394
    99   1      13.197701079324496      10.587921457802846      2.6485744978222394
   100   1      13.197701079324496      13.234901822253558                       0
   101   1      10.558160863459596      10.587921457802846      5.2971489956444797
   102   1      10.558160863459596      13.234901822253558        7.94572349346672
   103   1      13.197701079324496      10.587921457802846        7.94572349346672
   104   1      13.197701079324496      13.234901822253558      5.2971489956444797
   105   1      10.558160863459596      10.587921457802846      10.594297991288959
   106   1      10.558160863459596      13.234901822253558      13.242872489111202
   107   1      13.197701079324496      10.587921457802846      13.242872489111202
   108   1      13.197701079324496      13.234901822253558      10.594297991288959
