(written by ASE)

500 atoms
1 atom types

0.0      26.472541586617485  xlo xhi
0.0      26.436781411168049  ylo yhi
0.0      26.442690391483438  zlo zhi

Masses

     1      39.947999989723606 # Ar

Atoms # atomic

     1   1                       0                       0                       0
     2   1                       0      2.6436781411168044      2.6442690391483437
     3   1       2.647254158661748                       0      2.6442690391483437
     4   1       2.647254158661748      2.6436781411168044                       0
     5   1                       0                       0      5.2885380782966882
     6   1                       0      2.6436781411168044      7.9328071174450319
     7   1       2.647254158661748                       0      7.9328071174450319
     8   1       2.647254158661748      2.6436781411168044      5.2885380782966882
     9   1                       0                       0      10.577076156593376
    10   1                       0      2.6436781411168044      13.221345195741721
    11   1       2.647254158661748                       0      13.221345195741721
    12   1       2.647254158661748      2.6436781411168044      10.577076156593376
    13   1                       0                       0      15.865614234890064
    14   1                       0      2.6436781411168044      18.509883274038408
    15   1       2.647254158661748                       0      18.509883274038408
    16   1       2.647254158661748      2.6436781411168044      15.865614234890064
    17   1                       0                       0      21.154152313186753
    18   1                       0      2.6436781411168044      23.798421352335097
    19   1       2.647254158661748                       0      23.798421352335097
    20   1       2.647254158661748      2.6436781411168044      21.154152313186753
    21   1                       0      5.2873562822336098                       0
    22   1                       0      7.9310344233504138      2.6442690391483437
    23   1       2.647254158661748      5.2873562822336098      2.6442690391483437
    24   1       2.647254158661748      7.9310344233504138                       0
    25   1                       0      5.2873562822336098      5.2885380782966882
    26   1                       0      7.9310344233504138      7.9328071174450319
    27   1       2.647254158661748      5.2873562822336098      7.9328071174450319
    28   1       2.647254158661748      7.9310344233504138      5.2885380782966882
    29   1                       0      5.2873562822336098      10.577076156593376
    30   1                       0      7.9310344233504138      13.221345195741721
    31   1       2.647254158661748      5.2873562822336098      13.221345195741721
    32   1       2.647254158661748      7.9310344233504138      10.577076156593376
    33   1                       0      5.2873562822336098      15.865614234890064
    34   1                       0      7.9310344233504138      18.509883274038408
    35   1       2.647254158661748      5.2873562822336098      18.509883274038408
    36   1       2.647254158661748      7.9310344233504138      15.865614234890064
    37   1                       0      5.2873562822336098      21.154152313186753
    38   1                       0      7.9310344233504138      23.798421352335097
    39   1       2.647254158661748      5.2873562822336098      23.798421352335097
    40   1       2.647254158661748      7.9310344233504138      21.154152313186753
    41   1                       0       10.57471256446722                       0
    42   1                       0      13.218390705584024      2.6442690391483437
    43   1       2.647254158661748       10.57471256446722      2.6442690391483437
    44   1       2.647254158661748      13.218390705584024                       0
    45   1                       0       10.57471256446722      5.2885380782966882
    46   1                       0      13.218390705584024      7.9328071174450319
    47   1       2.647254158661748       10.57471256446722      7.9328071174450319
    48   1       2.647254158661748      13.218390705584024      5.2885380782966882
    49   1                       0       10.57471256446722      10.577076156593376
    50   1                       0      13.218390705584024      13.221345195741721
    51   1       2.647254158661748       10.57471256446722      13.221345195741721
    52   1       2.647254158661748      13.218390705584024      10.577076156593376
    53   1                       0       10.57471256446722      15.865614234890064
    54   1                       0      13.218390705584024      18.509883274038408
    55   1       2.647254158661748       10.57471256446722      18.509883274038408
    56   1       2.647254158661748      13.218390705584024      15.865614234890064
    57   1                       0       10.57471256446722      21.154152313186753
    58   1                       0      13.218390705584024      23.798421352335097
    59   1       2.647254158661748       10.57471256446722      23.798421352335097
    60   1       2.647254158661748      13.218390705584024      21.154152313186753
    61   1                       0      15.862068846700828                       0
    62   1                       0      18.505746987817631      2.6442690391483437
    63   1       2.647254158661748      15.862068846700828      2.6442690391483437
    64   1       2.647254158661748      18.505746987817631                       0
    65   1                       0      15.862068846700828      5.2885380782966882
    66   1                       0      18.505746987817631      7.9328071174450319
    67   1       2.647254158661748      15.862068846700828      7.9328071174450319
    68   1       2.647254158661748      18.505746987817631      5.2885380782966882
    69   1                       0      15.862068846700828      10.577076156593376
    70   1                       0      18.505746987817631      13.221345195741721
    71   1       2.647254158661748      15.862068846700828      13.221345195741721
    72   1       2.647254158661748      18.505746987817631      10.577076156593376
    73   1                       0      15.862068846700828      15.865614234890064
    74   1                       0      18.505746987817631      18.509883274038408
    75   1       2.647254158661748      15.862068846700828      18.509883274038408
    76   1       2.647254158661748      18.505746987817631      15.865614234890064
    77   1                       0      15.862068846700828      21.154152313186753
    78   1                       0      18.505746987817631      23.798421352335097
    79   1       2.647254158661748      15.862068846700828      23.798421352335097
    80   1       2.647254158661748      18.505746987817631      21.154152313186753
    81   1                       0      21.149425128934439                       0
    82   1                       0       23.79310327005124      2.6442690391483437
    83   1       2.647254158661748      21.149425128934439      2.6442690391483437
    84   1       2.647254158661748       23.79310327005124                       0
    85   1                       0      21.149425128934439      5.2885380782966882
    86   1                       0       23.79310327005124      7.9328071174450319
    87   1       2.647254158661748      21.149425128934439      7.9328071174450319
    88   1       2.647254158661748       23.79310327005124      5.2885380782966882
    89   1                       0      21.149425128934439      10.577076156593376
    90   1                       0       23.79310327005124      13.221345195741721
    91   1       2.647254158661748      21.149425128934439      13.221345195741721
    92   1       2.647254158661748       23.79310327005124      10.577076156593376
    93   1                       0      21.149425128934439      15.865614234890064
    94   1                       0       23.79310327005124      18.509883274038408
    95   1       2.647254158661748      21.149425128934439      18.509883274038408
    96   1       2.647254158661748       23.79310327005124      15.865614234890064
    97   1                       0      21.149425128934439      21.154152313186753
    98   1                       0       23.79310327005124      23.798421352335097
    99   1       2.647254158661748      21.149425128934439      23.798421352335097
   100   1       2.647254158661748       23.79310327005124      21.154152313186753
   101   1      5.2945083173234968                       0                       0
   102   1      5.2945083173234968      2.6436781411168044      2.6442690391483437
   103   1      7.9417624759852448                       0      2.6442690391483437
   104   1      7.9417624759852448      2.6436781411168044                       0
   105   1      5.2945083173234968                       0      5.2885380782966882
   106   1      5.2945083173234968      2.6436781411168044      7.9328071174450319
   107   1      7.9417624759852448                       0      7.9328071174450319
   108   1      7.9417624759852448      2.6436781411168044      5.2885380782966882
   109   1      5.2945083173234968                       0      10.577076156593376
   110   1      5.2945083173234968      2.6436781411168044      13.221345195741721
   111   1      7.9417624759852448                       0      13.221345195741721
   112   1      7.9417624759852448      2.6436781411168044      10.577076156593376
   113   1      5.2945083173234968                       0      15.865614234890064
   114   1      5.2945083173234968      2.6436781411168044      18.509883274038408
   115   1      7.9417624759852448                       0      18.509883274038408
   116   1      7.9417624759852448      2.6436781411168044      15.865614234890064
   117   1      5.2945083173234968                       0      21.154152313186753
   118   1      5.2945083173234968      2.6436781411168044      23.798421352335097
   119   1      7.9417624759852448                       0      23.798421352335097
   120   1      7.9417624759852448      2.6436781411168044      21.154152313186753
   121   1      5.2945083173234968      5.2873562822336098                       0
   122   1      5.2945083173234968      7.9310344233504138      2.6442690391483437
   123   1      7.9417624759852448      5.2873562822336098      2.6442690391483437
   124   1      7.9417624759852448      7.9310344233504138                       0
   125   1      5.2945083173234968      5.2873562822336098      5.2885380782966882
   126   1      5.2945083173234968      7.9310344233504138      7.9328071174450319
   127   1      7.9417624759852448      5.2873562822336098      7.9328071174450319
   128   1      7.9417624759852448      7.9310344233504138      5.2885380782966882
   129   1      5.2945083173234968      5.2873562822336098      10.577076156593376
   130   1      5.2945083173234968      7.9310344233504138      13.221345195741721
   131   1      7.9417624759852448      5.2873562822336098      13.221345195741721
   132   1      7.9417624759852448      7.9310344233504138      10.577076156593376
   133   1      5.2945083173234968      5.2873562822336098      15.865614234890064
   134   1      5.2945083173234968      7.9310344233504138      18.509883274038408
   135   1      7.9417624759852448      5.2873562822336098      18.509883274038408
   136   1      7.9417624759852448      7.9310344233504138      15.865614234890064
   137   1      5.2945083173234968      5.2873562822336098      21.154152313186753
   138   1      5.2945083173234968      7.9310344233504138      23.798421352335097
   139   1      7.9417624759852448      5.2873562822336098      23.798421352335097
   140   1      7.9417624759852448      7.9310344233504138      21.154152313186753
   141   1      5.2945083173234968       10.57471256446722                       0
   142   1      5.2945083173234968      13.218390705584024      2.6442690391483437
   143   1      7.9417624759852448       10.57471256446722      2.6442690391483437
   144   1      7.9417624759852448      13.218390705584024                       0
   145   1      5.2945083173234968       10.57471256446722      5.2885380782966882
   146   1      5.2945083173234968      13.218390705584024      7.9328071174450319
   147   1      7.9417624759852448       10.57471256446722      7.9328071174450319
   148   1      7.9417624759852448      13.218390705584024      5.2885380782966882
   149   1      5.2945083173234968       10.57471256446722      10.577076156593376
   150   1      5.2945083173234968      13.218390705584024      13.221345195741721
   151   1      7.9417624759852448       10.57471256446722      13.221345195741721
   152   1      7.9417624759852448      13.218390705584024      10.577076156593376
   153   1      5.2945083173234968       10.57471256446722      15.865614234890064
   154   1      5.2945083173234968      13.218390705584024      18.509883274038408
   155   1      7.9417624759852448       10.57471256446722      18.509883274038408
   156   1      7.9417624759852448      13.218390705584024      15.865614234890064
   157   1      5.2945083173234968       10.57471256446722      21.154152313186753
   158   1      5.2945083173234968      13.218390705584024      23.798421352335097
   159   1      7.9417624759852448       10.57471256446722      23.798421352335097
   160   1      7.9417624759852448      13.218390705584024      21.154152313186753
   161   1      5.2945083173234968      15.862068846700828                       0
   162   1      5.2945083173234968      18.505746987817631      2.6442690391483437
   163   1      7.9417624759852448      15.862068846700828      2.6442690391483437
   164   1      7.9417624759852448      18.505746987817631                       0
   165   1      5.2945083173234968      15.862068846700828      5.2885380782966882
   166   1      5.2945083173234968      18.505746987817631      7.9328071174450319
   167   1      7.9417624759852448      15.862068846700828      7.9328071174450319
   168   1      7.9417624759852448      18.505746987817631      5.2885380782966882
   169   1      5.2945083173234968      15.862068846700828      10.577076156593376
   170   1      5.2945083173234968      18.505746987817631      13.221345195741721
   171   1      7.9417624759852448      15.862068846700828      13.221345195741721
   172   1      7.9417624759852448      18.505746987817631      10.577076156593376
   173   1      5.2945083173234968      15.862068846700828      15.865614234890064
   174   1      5.2945083173234968      18.505746987817631      18.509883274038408
   175   1      7.9417624759852448      15.862068846700828      18.509883274038408
   176   1      7.9417624759852448      18.505746987817631      15.865614234890064
   177   1      5.2945083173234968      15.862068846700828      21.154152313186753
   178   1      5.2945083173234968      18.505746987817631      23.798421352335097
   179   1      7.9417624759852448      15.862068846700828      23.798421352335097
   180   1      7.9417624759852448      18.505746987817631      21.154152313186753
   181   1      5.2945083173234968      21.149425128934439                       0
   182   1      5.2945083173234968       23.79310327005124      2.6442690391483437
   183   1      7.9417624759852448      21.149425128934439      2.6442690391483437
   184   1      7.9417624759852448       23.79310327005124                       0
   185   1      5.2945083173234968      21.149425128934439      5.2885380782966882
   186   1      5.2945083173234968       23.79310327005124      7.9328071174450319
   187   1      7.9417624759852448      21.149425128934439      7.9328071174450319
   188   1      7.9417624759852448       23.79310327005124      5.2885380782966882
   189   1      5.2945083173234968      21.149425128934439      10.577076156593376
   190   1      5.2945083173234968       23.79310327005124      13.221345195741721
   191   1      7.9417624759852448      21.149425128934439      13.221345195741721
   192   1      7.9417624759852448       23.79310327005124      10.577076156593376
   193   1      5.2945083173234968      21.149425128934439      15.865614234890064
   194   1      5.2945083173234968       23.79310327005124      18.509883274038408
   195   1      7.9417624759852448      21.149425128934439      18.509883274038408
   196   1      7.9417624759852448       23.79310327005124      15.865614234890064
   197   1      5.2945083173234968      21.149425128934439      21.154152313186753
   198   1      5.2945083173234968       23.79310327005124      23.798421352335097
   199   1      7.9417624759852448      21.149425128934439      23.798421352335097
   200   1      7.9417624759852448       23.79310327005124      21.154152313186753
   201   1      10.589016634646994                       0                       0
   202   1      10.589016634646994      2.6436781411168044      2.6442690391483437
   203   1      13.236270793308742                       0      2.6442690391483437
   204   1      13.236270793308742      2.6436781411168044                       0
   205   1      10.589016634646994                       0      5.2885380782966882
   206   1      10.589016634646994      2.6436781411168044      7.9328071174450319
   207   1      13.236270793308742                       0      7.9328071174450319
   208   1      13.236270793308742      2.6436781411168044      5.2885380782966882
   209   1      10.589016634646994                       0      10.577076156593376
   210   1      10.589016634646994      2.6436781411168044      13.221345195741721
   211   1      13.236270793308742                       0      13.221345195741721
   212   1      13.236270793308742      2.6436781411168044      10.577076156593376
   213   1      10.589016634646994                       0      15.865614234890064
   214   1      10.589016634646994      2.6436781411168044      18.509883274038408
   215   1      13.236270793308742                       0      18.509883274038408
   216   1      13.236270793308742      2.6436781411168044      15.865614234890064
   217   1      10.589016634646994                       0      21.154152313186753
   218   1      10.589016634646994      2.6436781411168044      23.798421352335097
   219   1      13.236270793308742                       0      23.798421352335097
   220   1      13.236270793308742      2.6436781411168044      21.154152313186753
   221   1      10.589016634646994      5.2873562822336098                       0
   222   1      10.589016634646994      7.9310344233504138      2.6442690391483437
   223   1      13.236270793308742      5.2873562822336098      2.6442690391483437
   224   1      13.236270793308742      7.9310344233504138                       0
   225   1      10.589016634646994      5.2873562822336098      5.2885380782966882
   226   1      10.589016634646994      7.9310344233504138      7.9328071174450319
   227   1      13.236270793308742      5.2873562822336098      7.9328071174450319
   228   1      13.236270793308742      7.9310344233504138      5.2885380782966882
   229   1      10.589016634646994      5.2873562822336098      10.577076156593376
   230   1      10.589016634646994      7.9310344233504138      13.221345195741721
   231   1      13.236270793308742      5.2873562822336098      13.221345195741721
   232   1      13.236270793308742      7.9310344233504138      10.577076156593376
   233   1      10.589016634646994      5.2873562822336098      15.865614234890064
   234   1      10.589016634646994      7.9310344233504138      18.509883274038408
   235   1      13.236270793308742      5.2873562822336098      18.509883274038408
   236   1      13.236270793308742      7.9310344233504138      15.865614234890064
   237   1      10.589016634646994      5.2873562822336098      21.154152313186753
   238   1      10.589016634646994      7.9310344233504138      23.798421352335097
   239   1      13.236270793308742      5.2873562822336098      23.798421352335097
   240   1      13.236270793308742      7.9310344233504138      21.154152313186753
   241   1      10.589016634646994       10.57471256446722                       0
   242   1      10.589016634646994      13.218390705584024      2.6442690391483437
   243   1      13.236270793308742       10.57471256446722      2.6442690391483437
   244   1      13.236270793308742      13.218390705584024                       0
   245   1      10.589016634646994       10.57471256446722      5.2885380782966882
   246   1      10.589016634646994      13.218390705584024      7.9328071174450319
   247   1      13.236270793308742       10.57471256446722      7.9328071174450319
   248   1      13.236270793308742      13.218390705584024      5.2885380782966882
   249   1      10.589016634646994       10.57471256446722      10.577076156593376
   250   1      10.589016634646994      13.218390705584024      13.221345195741721
   251   1      13.236270793308742       10.57471256446722      13.221345195741721
   252   1      13.236270793308742      13.218390705584024      10.577076156593376
   253   1      10.589016634646994       10.57471256446722      15.865614234890064
   254   1      10.589016634646994      13.218390705584024      18.509883274038408
   255   1      13.236270793308742       10.57471256446722      18.509883274038408
   256   1      13.236270793308742      13.218390705584024      15.865614234890064
   257   1      10.589016634646994       10.57471256446722      21.154152313186753
   258   1      10.589016634646994      13.218390705584024      23.798421352335097
   259   1      13.236270793308742       10.57471256446722      23.798421352335097
   260   1      13.236270793308742      13.218390705584024      21.154152313186753
   261   1      10.589016634646994      15.862068846700828                       0
   262   1      10.589016634646994      18.505746987817631      2.6442690391483437
   263   1      13.236270793308742      15.862068846700828      2.6442690391483437
   264   1      13.236270793308742      18.505746987817631                       0
   265   1      10.589016634646994      15.862068846700828      5.2885380782966882
   266   1      10.589016634646994      18.505746987817631      7.9328071174450319
   267   1      13.236270793308742      15.862068846700828      7.9328071174450319
   268   1      13.236270793308742      18.505746987817631      5.2885380782966882
   269   1      10.589016634646994      15.862068846700828      10.577076156593376
   270   1      10.589016634646994      18.505746987817631      13.221345195741721
   271   1      13.236270793308742      15.862068846700828      13.221345195741721
   272   1      13.236270793308742      18.505746987817631      10.577076156593376
   273   1      10.589016634646994      15.862068846700828      15.865614234890064
   274   1      10.589016634646994      18.505746987817631      18.509883274038408
   275   1      13.236270793308742      15.862068846700828      18.509883274038408
   276   1      13.236270793308742      18.505746987817631      15.865614234890064
   277   1      10.589016634646994      15.862068846700828      21.154152313186753
   278   1      10.589016634646994      18.505746987817631      23.798421352335097
   279   1      13.236270793308742      15.862068846700828      23.798421352335097
   280   1      13.236270793308742      18.505746987817631      21.154152313186753
   281   1      10.589016634646994      21.149425128934439                       0
   282   1      10.589016634646994       23.79310327005124      2.6442690391483437
   283   1      13.236270793308742      21.149425128934439      2.6442690391483437
   284   1      13.236270793308742       23.79310327005124                       0
   285   1      10.589016634646994      21.149425128934439      5.2885380782966882
   286   1      10.589016634646994       23.79310327005124      7.9328071174450319
   287   1      13.236270793308742      21.149425128934439      7.9328071174450319
   288   1      13.236270793308742       23.79310327005124      5.2885380782966882
   289   1      10.589016634646994      21.149425128934439      10.577076156593376
   290   1      10.589016634646994       23.79310327005124      13.221345195741721
   291   1      13.236270793308742      21.149425128934439      13.221345195741721
   292   1      13.236270793308742       23.79310327005124      10.577076156593376
   293   1      10.589016634646994      21.149425128934439      15.865614234890064
   294   1      10.589016634646994       23.79310327005124      18.509883274038408
   295   1      13.236270793308742      21.149425128934439      18.509883274038408
   296   1      13.236270793308742       23.79310327005124      15.865614234890064
   297   1      10.589016634646994      21.149425128934439      21.154152313186753
   298   1      10.589016634646994       23.79310327005124      23.798421352335097
   299   1      13.236270793308742      21.149425128934439      23.798421352335097
   300   1      13.236270793308742       23.79310327005124      21.154152313186753
   301   1       15.88352495197049                       0                       0
   302   1       15.88352495197049      2.6436781411168044      2.6442690391483437
   303   1      18.530779110632235                       0      2.6442690391483437
   304   1      18.530779110632235      2.6436781411168044                       0
   305   1       15.88352495197049                       0      5.2885380782966882
   306   1       15.88352495197049      2.6436781411168044      7.9328071174450319
   307   1      18.530779110632235                       0      7.9328071174450319
   308   1      18.530779110632235      2.6436781411168044      5.2885380782966882
   309   1       15.88352495197049                       0      10.577076156593376
   310   1       15.88352495197049      2.6436781411168044      13.221345195741721
   311   1      18.530779110632235                       0      13.221345195741721
   312   1      18.530779110632235      2.6436781411168044      10.577076156593376
   313   1       15.88352495197049                       0      15.865614234890064
   314   1       15.88352495197049      2.6436781411168044      18.509883274038408
   315   1      18.530779110632235                       0      18.509883274038408
   316   1      18.530779110632235      2.6436781411168044      15.865614234890064
   317   1       15.88352495197049                       0      21.154152313186753
   318   1       15.88352495197049      2.6436781411168044      23.798421352335097
   319   1      18.530779110632235                       0      23.798421352335097
   320   1      18.530779110632235      2.6436781411168044      21.154152313186753
   321   1       15.88352495197049      5.2873562822336098                       0
   322   1       15.88352495197049      7.9310344233504138      2.6442690391483437
   323   1      18.530779110632235      5.2873562822336098      2.6442690391483437
   324   1      18.530779110632235      7.9310344233504138                       0
   325   1       15.88352495197049      5.2873562822336098      5.2885380782966882
   326   1       15.88352495197049      7.9310344233504138      7.9328071174450319
   327   1      18.530779110632235      5.2873562822336098      7.9328071174450319
   328   1      18.530779110632235      7.9310344233504138      5.2885380782966882
   329   1       15.88352495197049      5.2873562822336098      10.577076156593376
   330   1       15.88352495197049      7.9310344233504138      13.221345195741721
   331   1      18.530779110632235      5.2873562822336098      13.221345195741721
   332   1      18.530779110632235      7.9310344233504138      10.577076156593376
   333   1       15.88352495197049      5.2873562822336098      15.865614234890064
   334   1       15.88352495197049      7.9310344233504138      18.509883274038408
   335   1      18.530779110632235      5.2873562822336098      18.509883274038408
   336   1      18.530779110632235      7.9310344233504138      15.865614234890064
   337   1       15.88352495197049      5.2873562822336098      21.154152313186753
   338   1       15.88352495197049      7.9310344233504138      23.798421352335097
   339   1      18.530779110632235      5.2873562822336098      23.798421352335097
   340   1      18.530779110632235      7.9310344233504138      21.154152313186753
   341   1       15.88352495197049       10.57471256446722                       0
   342   1       15.88352495197049      13.218390705584024      2.6442690391483437
   343   1      18.530779110632235       10.57471256446722      2.6442690391483437
   344   1      18.530779110632235      13.218390705584024                       0
   345   1       15.88352495197049       10.57471256446722      5.2885380782966882
   346   1       15.88352495197049      13.218390705584024      7.9328071174450319
   347   1      18.530779110632235       10.57471256446722      7.9328071174450319
   348   1      18.530779110632235      13.218390705584024      5.2885380782966882
   349   1       15.88352495197049       10.57471256446722      10.577076156593376
   350   1       15.88352495197049      13.218390705584024      13.221345195741721
   351   1      18.530779110632235       10.57471256446722      13.221345195741721
   352   1      18.530779110632235      13.218390705584024      10.577076156593376
   353   1       15.88352495197049       10.57471256446722      15.865614234890064
   354   1       15.88352495197049      13.218390705584024      18.509883274038408
   355   1      18.530779110632235       10.57471256446722      18.509883274038408
   356   1      18.530779110632235      13.218390705584024      15.865614234890064
   357   1       15.88352495197049       10.57471256446722      21.154152313186753
   358   1       15.88352495197049      13.218390705584024      23.798421352335097