(written by ASE)

500 atoms
1 atom types

0.0      26.463488843531099  xlo xhi
0.0      26.441185154508563  ylo yhi
0.0      26.450711724520389  zlo zhi

Masses

     1      39.947999989723606 # Ar

Atoms # atomic

     1   1                       0                       0                       0
     2   1                       0       2.644118515450856      2.6450711724520386
     3   1      2.6463488843531096                       0      2.6450711724520386
     4   1      2.6463488843531096       2.644118515450856                       0
     5   1                       0                       0      5.2901423449040781
     6   1                       0       2.644118515450856      7.9352135173561162
     7   1      2.6463488843531096                       0      7.9352135173561162
     8   1      2.6463488843531096       2.644118515450856      5.2901423449040781
     9   1                       0                       0      10.580284689808156
    10   1                       0       2.644118515450856      13.225355862260194
    11   1      2.6463488843531096                       0      13.225355862260194
    12   1      2.6463488843531096       2.644118515450856      10.580284689808156
    13   1                       0                       0      15.870427034712232
    14   1                       0       2.644118515450856      18.515498207164271
    15   1      2.6463488843531096                       0      18.515498207164271
    16   1      2.6463488843531096       2.644118515450856      15.870427034712232
    17   1                       0                       0      21.160569379616312
    18   1                       0       2.644118515450856      23.805640552068351
    19   1      2.6463488843531096                       0      23.805640552068351
    20   1      2.6463488843531096       2.644118515450856      21.160569379616312
    21   1                       0      5.2882370309017128                       0
    22   1                       0      7.9323555463525688      2.6450711724520386
    23   1      2.6463488843531096      5.2882370309017128      2.6450711724520386
    24   1      2.6463488843531096      7.9323555463525688                       0
    25   1                       0      5.2882370309017128      5.2901423449040781
    26   1                       0      7.9323555463525688      7.9352135173561162
    27   1      2.6463488843531096      5.2882370309017128      7.9352135173561162
    28   1      2.6463488843531096      7.9323555463525688      5.2901423449040781
    29   1                       0      5.2882370309017128      10.580284689808156
    30   1                       0      7.9323555463525688      13.225355862260194
    31   1      2.6463488843531096      5.2882370309017128      13.225355862260194
    32   1      2.6463488843531096      7.9323555463525688      10.580284689808156
    33   1                       0      5.2882370309017128      15.870427034712232
    34   1                       0      7.9323555463525688      18.515498207164271
    35   1      2.6463488843531096      5.2882370309017128      18.515498207164271
    36   1      2.6463488843531096      7.9323555463525688      15.870427034712232
    37   1                       0      5.2882370309017128      21.160569379616312
    38   1                       0      7.9323555463525688      23.805640552068351
    39   1      2.6463488843531096      5.2882370309017128      23.805640552068351
    40   1      2.6463488843531096      7.9323555463525688      21.160569379616312
    41   1                       0      10.576474061803426                       0
    42   1                       0      13.220592577254282      2.6450711724520386
    43   1      2.6463488843531096      10.576474061803426      2.6450711724520386
    44   1      2.6463488843531096      13.220592577254282                       0
    45   1                       0      10.576474061803426      5.2901423449040781
    46   1                       0      13.220592577254282      7.9352135173561162
    47   1      2.6463488843531096      10.576474061803426      7.9352135173561162
    48   1      2.6463488843531096      13.220592577254282      5.2901423449040781
    49   1                       0      10.576474061803426      10.580284689808156
    50   1                       0      13.220592577254282      13.225355862260194
    51   1      2.6463488843531096      10.576474061803426      13.225355862260194
    52   1      2.6463488843531096      13.220592577254282      10.580284689808156
    53   1                       0      10.576474061803426      15.870427034712232
    54   1                       0      13.220592577254282      18.515498207164271
    55   1      2.6463488843531096      10.576474061803426      18.515498207164271
    56   1      2.6463488843531096      13.220592577254282      15.870427034712232
    57   1                       0      10.576474061803426      21.160569379616312
    58   1                       0      13.220592577254282      23.805640552068351
    59   1      2.6463488843531096      10.576474061803426      23.805640552068351
    60   1      2.6463488843531096      13.220592577254282      21.160569379616312
    61   1                       0      15.864711092705138                       0
    62   1                       0      18.508829608155992      2.6450711724520386
    63   1      2.6463488843531096      15.864711092705138      2.6450711724520386
    64   1      2.6463488843531096      18.508829608155992                       0
    65   1                       0      15.864711092705138      5.2901423449040781
    66   1                       0      18.508829608155992      7.9352135173561162
    67   1      2.6463488843531096      15.864711092705138      7.9352135173561162
    68   1      2.6463488843531096      18.508829608155992      5.2901423449040781
    69   1                       0      15.864711092705138      10.580284689808156
    70   1                       0      18.508829608155992      13.225355862260194
    71   1      2.6463488843531096      15.864711092705138      13.225355862260194
    72   1      2.6463488843531096      18.508829608155992      10.580284689808156
    73   1                       0      15.864711092705138      15.870427034712232
    74   1                       0      18.508829608155992      18.515498207164271
    75   1      2.6463488843531096      15.864711092705138      18.515498207164271
    76   1      2.6463488843531096      18.508829608155992      15.870427034712232
    77   1                       0      15.864711092705138      21.160569379616312
    78   1                       0      18.508829608155992      23.805640552068351
    79   1      2.6463488843531096      15.864711092705138      23.805640552068351
    80   1      2.6463488843531096      18.508829608155992      21.160569379616312
    81   1                       0      21.152948123606851                       0
    82   1                       0      23.797066639057707      2.6450711724520386
    83   1      2.6463488843531096      21.152948123606851      2.6450711724520386
    84   1      2.6463488843531096      23.797066639057707                       0
    85   1                       0      21.152948123606851      5.2901423449040781
    86   1                       0      23.797066639057707      7.9352135173561162
    87   1      2.6463488843531096      21.152948123606851      7.9352135173561162
    88   1      2.6463488843531096      23.797066639057707      5.2901423449040781
    89   1                       0      21.152948123606851      10.580284689808156
    90   1                       0      23.797066639057707      13.225355862260194
    91   1      2.6463488843531096      21.152948123606851      13.225355862260194
    92   1      2.6463488843531096      23.797066639057707      10.580284689808156
    93   1                       0      21.152948123606851      15.870427034712232
    94   1                       0      23.797066639057707      18.515498207164271
    95   1      2.6463488843531096      21.152948123606851      18.515498207164271
    96   1      2.6463488843531096      23.797066639057707      15.870427034712232
    97   1                       0      21.152948123606851      21.160569379616312
    98   1                       0      23.797066639057707      23.805640552068351
    99   1      2.6463488843531096      21.152948123606851      23.805640552068351
   100   1      2.6463488843531096      23.797066639057707      21.160569379616312
   101   1        5.29269776870622                       0                       0
   102   1        5.29269776870622       2.644118515450856      2.6450711724520386
   103   1      7.9390466530593296                       0      2.6450711724520386
   104   1      7.9390466530593296       2.644118515450856                       0
   105   1        5.29269776870622                       0      5.2901423449040781
   106   1        5.29269776870622       2.644118515450856      7.9352135173561162
   107   1      7.9390466530593296                       0      7.9352135173561162
   108   1      7.9390466530593296       2.644118515450856      5.2901423449040781
   109   1        5.29269776870622                       0      10.580284689808156
   110   1        5.29269776870622       2.644118515450856      13.225355862260194
   111   1      7.9390466530593296                       0      13.225355862260194
   112   1      7.9390466530593296       2.644118515450856      10.580284689808156
   113   1        5.29269776870622                       0      15.870427034712232
   114   1        5.29269776870622       2.644118515450856      18.515498207164271
   115   1      7.9390466530593296                       0      18.515498207164271
   116   1      7.9390466530593296       2.644118515450856      15.870427034712232
   117   1        5.29269776870622                       0      21.160569379616312
   118   1        5.29269776870622       2.644118515450856      23.805640552068351
   119   1      7.9390466530593296                       0      23.805640552068351
   120   1      7.9390466530593296       2.644118515450856      21.160569379616312
   121   1        5.29269776870622      5.2882370309017128                       0
   122   1        5.29269776870622      7.9323555463525688      2.6450711724520386
   123   1      7.9390466530593296      5.2882370309017128      2.6450711724520386
   124   1      7.9390466530593296      7.9323555463525688                       0
   125   1        5.29269776870622      5.2882370309017128      5.2901423449040781
   126   1        5.29269776870622      7.9323555463525688      7.9352135173561162
   127   1      7.9390466530593296      5.2882370309017128      7.9352135173561162
   128   1      7.9390466530593296      7.9323555463525688      5.2901423449040781
   129   1        5.29269776870622      5.2882370309017128      10.580284689808156
   130   1        5.29269776870622      7.9323555463525688      13.225355862260194
   131   1      7.9390466530593296      5.2882370309017128      13.225355862260194
   132   1      7.9390466530593296      7.9323555463525688      10.580284689808156
   133   1        5.29269776870622      5.2882370309017128      15.870427034712232
   134   1        5.29269776870622      7.9323555463525688      18.515498207164271
   135   1      7.9390466530593296      5.2882370309017128      18.515498207164271
   136   1      7.9390466530593296      7.9323555463525688      15.870427034712232
   137   1        5.29269776870622      5.2882370309017128      21.160569379616312
   138   1        5.29269776870622      7.9323555463525688      23.805640552068351
   139   1      7.9390466530593296      5.2882370309017128      23.805640552068351
   140   1      7.9390466530593296      7.9323555463525688      21.160569379616312
   141   1        5.29269776870622      10.576474061803426                       0
   142   1        5.29269776870622      13.220592577254282      2.6450711724520386
   143   1      7.9390466530593296      10.576474061803426      2.6450711724520386
   144   1      7.9390466530593296      13.220592577254282                       0
   145   1        5.29269776870622      10.576474061803426      5.2901423449040781
   146   1        5.29269776870622      13.220592577254282      7.9352135173561162
   147   1      7.9390466530593296      10.576474061803426      7.9352135173561162
   148   1      7.9390466530593296      13.220592577254282      5.2901423449040781
   149   1        5.29269776870622      10.576474061803426      10.580284689808156
   150   1        5.29269776870622      13.220592577254282      13.225355862260194
   151   1      7.9390466530593296      10.576474061803426      13.225355862260194
   152   1      7.9390466530593296      13.220592577254282      10.580284689808156
   153   1        5.29269776870622      10.576474061803426      15.870427034712232
   154   1        5.29269776870622      13.220592577254282      18.515498207164271
   155   1      7.9390466530593296      10.576474061803426      18.515498207164271
   156   1      7.9390466530593296      13.220592577254282      15.870427034712232
   157   1        5.29269776870622      10.576474061803426      21.160569379616312
   158   1        5.29269776870622      13.220592577254282      23.805640552068351
   159   1      7.9390466530593296      10.576474061803426      23.805640552068351
   160   1      7.9390466530593296      13.220592577254282      21.160569379616312
   161   1        5.29269776870622      15.864711092705138                       0
   162   1        5.29269776870622      18.508829608155992      2.6450711724520386
   163   1      7.9390466530593296      15.864711092705138      2.6450711724520386
   164   1      7.9390466530593296      18.508829608155992                       0
   165   1        5.29269776870622      15.864711092705138      5.2901423449040781
   166   1        5.29269776870622      18.508829608155992      7.9352135173561162
   167   1      7.9390466530593296      15.864711092705138      7.9352135173561162
   168   1      7.9390466530593296      18.508829608155992      5.2901423449040781
   169   1        5.29269776870622      15.864711092705138      10.580284689808156
   170   1        5.29269776870622      18.508829608155992      13.225355862260194
   171   1      7.9390466530593296      15.864711092705138      13.225355862260194
   172   1      7.9390466530593296      18.508829608155992      10.580284689808156
   173   1        5.29269776870622      15.864711092705138      15.870427034712232
   174   1        5.29269776870622      18.508829608155992      18.515498207164271
   175   1      7.9390466530593296      15.864711092705138      18.515498207164271
   176   1      7.9390466530593296      18.508829608155992      15.870427034712232
   177   1        5.29269776870622      15.864711092705138      21.160569379616312
   178   1        5.29269776870622      18.508829608155992      23.805640552068351
   179   1      7.9390466530593296      15.864711092705138      23.805640552068351
   180   1      7.9390466530593296      18.508829608155992      21.160569379616312
   181   1        5.29269776870622      21.152948123606851                       0
   182   1        5.29269776870622      23.797066639057707      2.6450711724520386
   183   1      7.9390466530593296      21.152948123606851      2.6450711724520386
   184   1      7.9390466530593296      23.797066639057707                       0
   185   1        5.29269776870622      21.152948123606851      5.2901423449040781
   186   1        5.29269776870622      23.797066639057707      7.9352135173561162
   187   1      7.9390466530593296      21.152948123606851      7.9352135173561162
   188   1      7.9390466530593296      23.797066639057707      5.2901423449040781
   189   1        5.29269776870622      21.152948123606851      10.580284689808156
   190   1        5.29269776870622      23.797066639057707      13.225355862260194
   191   1      7.9390466530593296      21.152948123606851      13.225355862260194
   192   1      7.9390466530593296      23.797066639057707      10.580284689808156
   193   1        5.29269776870622      21.152948123606851      15.870427034712232
   194   1        5.29269776870622      23.797066639057707      18.515498207164271
   195   1      7.9390466530593296      21.152948123606851      18.515498207164271
   196   1      7.9390466530593296      23.797066639057707      15.870427034712232
   197   1        5.29269776870622      21.152948123606851      21.160569379616312
   198   1        5.29269776870622      23.797066639057707      23.805640552068351
   199   1      7.9390466530593296      21.152948123606851      23.805640552068351
   200   1      7.9390466530593296      23.797066639057707      21.160569379616312
   201   1       10.58539553741244                       0                       0
   202   1       10.58539553741244       2.644118515450856      2.6450711724520386
   203   1      13.231744421765551                       0      2.6450711724520386
   204   1      13.231744421765551       2.644118515450856                       0
   205   1       10.58539553741244                       0      5.2901423449040781
   206   1       10.58539553741244       2.644118515450856      7.9352135173561162
   207   1      13.231744421765551                       0      7.9352135173561162
   208   1      13.231744421765551       2.644118515450856      5.2901423449040781
   209   1       10.58539553741244                       0      10.580284689808156
   210   1       10.58539553741244       2.644118515450856      13.225355862260194
   211   1      13.231744421765551                       0      13.225355862260194
   212   1      13.231744421765551       2.644118515450856      10.580284689808156
   213   1       10.58539553741244                       0      15.870427034712232
   214   1       10.58539553741244       2.644118515450856      18.515498207164271
   215   1      13.231744421765551                       0      18.515498207164271
   216   1      13.231744421765551       2.644118515450856      15.870427034712232
   217   1       10.58539553741244                       0      21.160569379616312
   218   1       10.58539553741244       2.644118515450856      23.805640552068351
   219   1      13.231744421765551                       0      23.805640552068351
   220   1      13.231744421765551       2.644118515450856      21.160569379616312
   221   1       10.58539553741244      5.2882370309017128                       0
   222   1       10.58539553741244      7.9323555463525688      2.6450711724520386
   223   1      13.231744421765551      5.2882370309017128      2.6450711724520386
   224   1      13.231744421765551      7.9323555463525688                       0
   225   1       10.58539553741244      5.2882370309017128      5.2901423449040781
   226   1       10.58539553741244      7.9323555463525688      7.9352135173561162
   227   1      13.231744421765551      5.2882370309017128      7.9352135173561162
   228   1      13.231744421765551      7.9323555463525688      5.2901423449040781
   229   1       10.58539553741244      5.2882370309017128      10.580284689808156
   230   1       10.58539553741244      7.9323555463525688      13.225355862260194
   231   1      13.231744421765551      5.2882370309017128      13.225355862260194
   232   1      13.231744421765551      7.9323555463525688      10.580284689808156
   233   1       10.58539553741244      5.2882370309017128      15.870427034712232
   234   1       10.58539553741244      7.9323555463525688      18.515498207164271
   235   1      13.231744421765551      5.2882370309017128      18.515498207164271
   236   1      13.231744421765551      7.9323555463525688      15.870427034712232
   237   1       10.58539553741244      5.2882370309017128      21.160569379616312
   238   1       10.58539553741244      7.9323555463525688      23.805640552068351
   239   1      13.231744421765551      5.2882370309017128      23.805640552068351
   240   1      13.231744421765551      7.9323555463525688      21.160569379616312
   241   1       10.58539553741244      10.576474061803426                       0
   242   1       10.58539553741244      13.220592577254282      2.6450711724520386
   243   1      13.231744421765551      10.576474061803426      2.6450711724520386
   244   1      13.231744421765551      13.220592577254282                       0
   245   1       10.58539553741244      10.576474061803426      5.2901423449040781
   246   1       10.58539553741244      13.220592577254282      7.9352135173561162
   247   1      13.231744421765551      10.576474061803426      7.9352135173561162
   248   1      13.231744421765551      13.220592577254282      5.2901423449040781
   249   1       10.58539553741244      10.576474061803426      10.580284689808156
   250   1       10.58539553741244      13.220592577254282      13.225355862260194
   251   1      13.231744421765551      10.576474061803426      13.225355862260194
   252   1      13.231744421765551      13.220592577254282      10.580284689808156
   253   1       10.58539553741244      10.576474061803426      15.870427034712232
   254   1       10.58539553741244      13.220592577254282      18.515498207164271
   255   1      13.231744421765551      10.576474061803426      18.515498207164271
   256   1      13.231744421765551      13.220592577254282      15.870427034712232
   257   1       10.58539553741244      10.576474061803426      21.160569379616312
   258   1       10.58539553741244      13.220592577254282      23.805640552068351
   259   1      13.231744421765551      10.576474061803426      23.805640552068351
   260   1      13.231744421765551      13.220592577254282      21.160569379616312
   261   1       10.58539553741244      15.864711092705138                       0
   262   1       10.58539553741244      18.508829608155992      2.6450711724520386
   263   1      13.231744421765551      15.864711092705138      2.6450711724520386
   264   1      13.231744421765551      18.508829608155992                       0
   265   1       10.58539553741244      15.864711092705138      5.2901423449040781
   266   1       10.58539553741244      18.508829608155992      7.9352135173561162
   267   1      13.231744421765551      15.864711092705138      7.9352135173561162
   268   1      13.231744421765551      18.508829608155992      5.2901423449040781
   269   1       10.58539553741244      15.864711092705138      10.580284689808156
   270   1       10.58539553741244      18.508829608155992      13.225355862260194
   271   1      13.231744421765551      15.864711092705138      13.225355862260194
   272   1      13.231744421765551      18.508829608155992      10.580284689808156
   273   1       10.58539553741244      15.864711092705138      15.870427034712232
   274   1       10.58539553741244      18.508829608155992      18.515498207164271
   275   1      13.231744421765551      15.864711092705138      18.515498207164271
   276   1      13.231744421765551      18.508829608155992      15.870427034712232
   277   1       10.58539553741244      15.864711092705138      21.160569379616312
   278   1       10.58539553741244      18.508829608155992      23.805640552068351
   279   1      13.231744421765551      15.864711092705138      23.805640552068351
   280   1      13.231744421765551      18.508829608155992      21.160569379616312
   281   1       10.58539553741244      21.152948123606851                       0
   282   1       10.58539553741244      23.797066639057707      2.6450711724520386
   283   1      13.231744421765551      21.152948123606851      2.6450711724520386
   284   1      13.231744421765551      23.797066639057707                       0
   285   1       10.58539553741244      21.152948123606851      5.2901423449040781
   286   1       10.58539553741244      23.797066639057707      7.9352135173561162
   287   1      13.231744421765551      21.152948123606851      7.9352135173561162
   288   1      13.231744421765551      23.797066639057707      5.2901423449040781
   289   1       10.58539553741244      21.152948123606851      10.580284689808156
   290   1       10.58539553741244      23.797066639057707      13.225355862260194
   291   1      13.231744421765551      21.152948123606851      13.225355862260194
   292   1      13.231744421765551      23.797066639057707      10.580284689808156
   293   1       10.58539553741244      21.152948123606851      15.870427034712232
   294   1       10.58539553741244      23.797066639057707      18.515498207164271
   295   1      13.231744421765551      21.152948123606851      18.515498207164271
   296   1      13.231744421765551      23.797066639057707      15.870427034712232
   297   1       10.58539553741244      21.152948123606851      21.160569379616312
   298   1       10.58539553741244      23.797066639057707      23.805640552068351
   299   1      13.231744421765551      21.152948123606851      23.805640552068351
   300   1      13.231744421765551      23.797066639057707      21.160569379616312
   301   1      15.878093306118659                       0                       0
   302   1      15.878093306118659       2.644118515450856      2.6450711724520386
   303   1      18.524442190471767                       0      2.6450711724520386
   304   1      18.524442190471767       2.644118515450856                       0
   305   1      15.878093306118659                       0      5.2901423449040781
   306   1      15.878093306118659       2.644118515450856      7.9352135173561162
   307   1      18.524442190471767                       0      7.9352135173561162
   308   1      18.524442190471767       2.644118515450856      5.2901423449040781
   309   1      15.878093306118659                       0      10.580284689808156
   310   1      15.878093306118659       2.644118515450856      13.225355862260194
   311   1      18.524442190471767                       0      13.225355862260194
   312   1      18.524442190471767       2.644118515450856      10.580284689808156
   313   1      15.878093306118659                       0      15.870427034712232
   314   1      15.878093306118659       2.644118515450856      18.515498207164271
   315   1      18.524442190471767                       0      18.515498207164271
   316   1      18.524442190471767       2.644118515450856      15.870427034712232
   317   1      15.878093306118659                       0      21.160569379616312
   318   1      15.878093306118659       2.644118515450856      23.805640552068351
   319   1      18.524442190471767                       0      23.805640552068351
   320   1      18.524442190471767       2.644118515450856      21.160569379616312
   321   1      15.878093306118659      5.2882370309017128                       0
   322   1      15.878093306118659      7.9323555463525688      2.6450711724520386
   323   1      18.524442190471767      5.2882370309017128      2.6450711724520386
   324   1      18.524442190471767      7.9323555463525688                       0
   325   1      15.878093306118659      5.2882370309017128      5.2901423449040781
   326   1      15.878093306118659      7.9323555463525688      7.9352135173561162
   327   1      18.524442190471767      5.2882370309017128      7.9352135173561162
   328   1      18.524442190471767      7.9323555463525688      5.2901423449040781
   329   1      15.878093306118659      5.2882370309017128      10.580284689808156
   330   1      15.878093306118659      7.9323555463525688      13.225355862260194
   331   1      18.524442190471767      5.2882370309017128      13.225355862260194
   332   1      18.524442190471767      7.9323555463525688      10.580284689808156
   333   1      15.878093306118659      5.2882370309017128      15.870427034712232
   334   1      15.878093306118659      7.9323555463525688      18.515498207164271
   335   1      18.524442190471767      5.2882370309017128      18.515498207164271
   336   1      18.524442190471767      7.9323555463525688      15.870427034712232
   337   1      15.878093306118659      5.2882370309017128      21.160569379616312
   338   1      15.878093306118659      7.9323555463525688      23.805640552068351
   339   1      18.524442190471767      5.2882370309017128      23.805640552068351
   340   1      18.524442190471767      7.9323555463525688      21.160569379616312
   341   1      15.878093306118659      10.576474061803426                       0
   342   1      15.878093306118659      13.220592577254282      2.6450711724520386
   343   1      18.524442190471767      10.576474061803426      2.6450711724520386
   344   1      18.524442190471767      13.220592577254282                       0
   345   1      15.878093306118659      10.576474061803426      5.2901423449040781
   346   1      15.878093306118659      13.220592577254282      7.9352135173561162
   347   1      18.524442190471767      10.576474061803426      7.9352135173561162
   348   1      18.524442190471767      13.220592577254282      5.2901423449040781
   349   1      15.878093306118659      10.576474061803426      10.580284689808156
   350   1      15.878093306118659      13.220592577254282      13.225355862260194
   351   1      18.524442190471767      10.576474061803426      13.225355862260194
   352   1      18.524442190471767      13.220592577254282      10.580284689808156
   353   1      15.878093306118659      10.576474061803426      15.870427034712232
   354   1      15.878093306118659      13.220592577254282      18.515498207164271
   355   1      18.524442190471767      10.576474061803426      18.515498207164271
   356   1      18.524442190471767      13.220592577254282      15.870427034712232
   357   1      15.878093306118659      10.576474061803426      21.160569379616312
   358   1      15.878093306118659      13.220592577254282      23.805640552068351