(written by ASE)

108 atoms
1 atom types

0.0      15.875665802646132  xlo xhi
0.0       15.87031643442706  ylo yhi
0.0      15.867517779395609  zlo zhi

Masses

     1      39.947999989723606 # Ar

Atoms # atomic

     1   1                       0                       0                       0
     2   1                       0      2.6450527390711764      2.6445862965659348
     3   1      2.6459443004410219                       0      2.6445862965659348
     4   1      2.6459443004410219      2.6450527390711764                       0
     5   1                       0                       0      5.2891725931318705
     6   1                       0      2.6450527390711764      7.9337588896978053
     7   1      2.6459443004410219                       0      7.9337588896978053
     8   1      2.6459443004410219      2.6450527390711764      5.2891725931318705
     9   1                       0                       0      10.578345186263741
    10   1                       0      2.6450527390711764      13.222931482829676
    11   1      2.6459443004410219                       0      13.222931482829676
    12   1      2.6459443004410219      2.6450527390711764      10.578345186263741
    13   1                       0      5.2901054781423538                       0
    14   1                       0      7.9351582172135302      2.6445862965659348
    15   1      2.6459443004410219      5.2901054781423538      2.6445862965659348
    16   1      2.6459443004410219      7.9351582172135302                       0
    17   1                       0      5.2901054781423538      5.2891725931318705
    18   1                       0      7.9351582172135302      7.9337588896978053
    19   1      2.6459443004410219      5.2901054781423538      7.9337588896978053
    20   1      2.6459443004410219      7.9351582172135302      5.2891725931318705
    21   1                       0      5.2901054781423538      10.578345186263741
    22   1                       0      7.9351582172135302      13.222931482829676
    23   1      2.6459443004410219      5.2901054781423538      13.222931482829676
    24   1      2.6459443004410219      7.9351582172135302      10.578345186263741
    25   1                       0      10.580210956284708                       0
    26   1                       0      13.225263695355885      2.6445862965659348
    27   1      2.6459443004410219      10.580210956284708      2.6445862965659348
    28   1      2.6459443004410219      13.225263695355885                       0
    29   1                       0      10.580210956284708      5.2891725931318705
    30   1                       0      13.225263695355885      7.9337588896978053
    31   1      2.6459443004410219      10.580210956284708      7.9337588896978053
    32   1      2.6459443004410219      13.225263695355885      5.2891725931318705
    33   1                       0      10.580210956284708      10.578345186263741
    34   1                       0      13.225263695355885      13.222931482829676
    35   1      2.6459443004410219      10.580210956284708      13.222931482829676
    36   1      2.6459443004410219      13.225263695355885      10.578345186263741
    37   1      5.2918886008820447                       0                       0
    38   1      5.2918886008820447      2.6450527390711764      2.6445862965659348
    39   1      7.9378329013230671                       0      2.6445862965659348
    40   1      7.9378329013230671      2.6450527390711764                       0
    41   1      5.2918886008820447                       0      5.2891725931318705
    42   1      5.2918886008820447      2.6450527390711764      7.9337588896978053
    43   1      7.9378329013230671                       0      7.9337588896978053
    44   1      7.9378329013230671      2.6450527390711764      5.2891725931318705
    45   1      5.2918886008820447                       0      10.578345186263741
    46   1      5.2918886008820447      2.6450527390711764      13.222931482829676
    47   1      7.9378329013230671                       0      13.222931482829676
    48   1      7.9378329013230671      2.6450527390711764      10.578345186263741
    49   1      5.2918886008820447      5.2901054781423538                       0
    50   1      5.2918886008820447      7.9351582172135302      2.6445862965659348
    51   1      7.9378329013230671      5.2901054781423538      2.6445862965659348
    52   1      7.9378329013230671      7.9351582172135302                       0
    53   1      5.2918886008820447      5.2901054781423538      5.2891725931318705
    54   1      5.2918886008820447      7.9351582172135302      7.9337588896978053
    55   1      7.9378329013230671      5.2901054781423538      7.9337588896978053
    56   1      7.9378329013230671      7.9351582172135302      5.2891725931318705
    57   1      5.2918886008820447      5.2901054781423538      10.578345186263741
    58   1      5.2918886008820447      7.9351582172135302      13.222931482829676
    59   1      7.9378329013230671      5.2901054781423538      13.222931482829676
    60   1      7.9378329013230671      7.9351582172135302      10.578345186263741
    61   1      5.2918886008820447      10.580210956284708                       0
    62   1      5.2918886008820447      13.225263695355885      2.6445862965659348
    63   1      7.9378329013230671      10.580210956284708      2.6445862965659348
    64   1      7.9378329013230671      13.225263695355885                       0
    65   1      5.2918886008820447      10.580210956284708      5.2891725931318705
    66   1      5.2918886008820447      13.225263695355885      7.9337588896978053
    67   1      7.9378329013230671      10.580210956284708      7.9337588896978053
    68   1      7.9378329013230671      13.225263695355885      5.2891725931318705
    69   1      5.2918886008820447      10.580210956284708      10.578345186263741
    70   1      5.2918886008820447      13.225263695355885      13.222931482829676
    71   1      7.9378329013230671      10.580210956284708      13.222931482829676
    72   1      7.9378329013230671      13.225263695355885      10.578345186263741
    73   1      10.583777201764089                       0                       0
    74   1      10.583777201764089      2.6450527390711764      2.6445862965659348
    75   1      13.229721502205113                       0      2.6445862965659348
    76   1      13.229721502205113      2.6450527390711764                       0
    77   1      10.583777201764089                       0      5.2891725931318705
    78   1      10.583777201764089      2.6450527390711764      7.9337588896978053
    79   1      13.229721502205113                       0      7.9337588896978053
    80   1      13.229721502205113      2.6450527390711764      5.2891725931318705
    81   1      10.583777201764089                       0      10.578345186263741
    82   1      10.583777201764089      2.6450527390711764      13.222931482829676
    83   1      13.229721502205113                       0      13.222931482829676
    84   1      13.229721502205113      2.6450527390711764      10.578345186263741
    85   1      10.583777201764089      5.2901054781423538                       0
    86   1      10.583777201764089      7.9351582172135302      2.6445862965659348
    87   1      13.229721502205113      5.2901054781423538      2.6445862965659348
    88   1      13.229721502205113      7.9351582172135302                       0
    89   1      10.583777201764089      5.2901054781423538      5.2891725931318705
    90   1      10.583777201764089      7.9351582172135302      7.9337588896978053
    91   1      13.229721502205113      5.2901054781423538      7.9337588896978053
    92   1      13.229721502205113      7.9351582172135302      5.2891725931318705
    93   1      10.583777201764089      5.2901054781423538      10.578345186263741
    94   1      10.583777201764089      7.9351582172135302      13.222931482829676
    95   1      13.229721502205113      5.2901054781423538      13.222931482829676
    96   1      13.229721502205113      7.9351582172135302      10.578345186263741
    97   1      10.583777201764089      10.580210956284708                       0
    98   1      10.583777201764089      13.225263695355885      2.6445862965659348
    99   1      13.229721502205113      10.580210956284708      2.6445862965659348
   100   1      13.229721502205113      13.225263695355885                       0
   101   1      10.583777201764089      10.580210956284708      5.2891725931318705
   102   1      10.583777201764089      13.225263695355885      7.9337588896978053
   103   1      13.229721502205113      10.580210956284708      7.9337588896978053
   104   1      13.229721502205113      13.225263695355885      5.2891725931318705
   105   1      10.583777201764089      10.580210956284708      10.578345186263741
   106   1      10.583777201764089      13.225263695355885      13.222931482829676
   107   1      13.229721502205113      10.580210956284708      13.222931482829676
   108   1      13.229721502205113      13.225263695355885      10.578345186263741
