(written by ASE)

108 atoms
1 atom types

0.0      15.871373853688784  xlo xhi
0.0      15.882415485044891  ylo yhi
0.0      15.857740181347959  zlo zhi

Masses

     1      39.947999989723606 # Ar

Atoms # atomic

     1   1                       0                       0                       0
     2   1                       0      2.6470692475074817      2.6429566968913258
     3   1      2.6452289756147964                       0      2.6429566968913258
     4   1      2.6452289756147964      2.6470692475074817                       0
     5   1                       0                       0      5.2859133937826526
     6   1                       0      2.6470692475074817      7.9288700906739793
     7   1      2.6452289756147964                       0      7.9288700906739793
     8   1      2.6452289756147964      2.6470692475074817      5.2859133937826526
     9   1                       0                       0      10.571826787565305
    10   1                       0      2.6470692475074817      13.214783484456632
    11   1      2.6452289756147964                       0      13.214783484456632
    12   1      2.6452289756147964      2.6470692475074817      10.571826787565305
    13   1                       0      5.2941384950149644                       0
    14   1                       0      7.9412077425224457      2.6429566968913258
    15   1      2.6452289756147964      5.2941384950149644      2.6429566968913258
    16   1      2.6452289756147964      7.9412077425224457                       0
    17   1                       0      5.2941384950149644      5.2859133937826526
    18   1                       0      7.9412077425224457      7.9288700906739793
    19   1      2.6452289756147964      5.2941384950149644      7.9288700906739793
    20   1      2.6452289756147964      7.9412077425224457      5.2859133937826526
    21   1                       0      5.2941384950149644      10.571826787565305
    22   1                       0      7.9412077425224457      13.214783484456632
    23   1      2.6452289756147964      5.2941384950149644      13.214783484456632
    24   1      2.6452289756147964      7.9412077425224457      10.571826787565305
    25   1                       0      10.588276990029929                       0
    26   1                       0       13.23534623753741      2.6429566968913258
    27   1      2.6452289756147964      10.588276990029929      2.6429566968913258
    28   1      2.6452289756147964       13.23534623753741                       0
    29   1                       0      10.588276990029929      5.2859133937826526
    30   1                       0       13.23534623753741      7.9288700906739793
    31   1      2.6452289756147964      10.588276990029929      7.9288700906739793
    32   1      2.6452289756147964       13.23534623753741      5.2859133937826526
    33   1                       0      10.588276990029929      10.571826787565305
    34   1                       0       13.23534623753741      13.214783484456632
    35   1      2.6452289756147964      10.588276990029929      13.214783484456632
    36   1      2.6452289756147964       13.23534623753741      10.571826787565305
    37   1      5.2904579512295937                       0                       0
    38   1      5.2904579512295937      2.6470692475074817      2.6429566968913258
    39   1       7.935686926844391                       0      2.6429566968913258
    40   1       7.935686926844391      2.6470692475074817                       0
    41   1      5.2904579512295937                       0      5.2859133937826526
    42   1      5.2904579512295937      2.6470692475074817      7.9288700906739793
    43   1       7.935686926844391                       0      7.9288700906739793
    44   1       7.935686926844391      2.6470692475074817      5.2859133937826526
    45   1      5.2904579512295937                       0      10.571826787565305
    46   1      5.2904579512295937      2.6470692475074817      13.214783484456632
    47   1       7.935686926844391                       0      13.214783484456632
    48   1       7.935686926844391      2.6470692475074817      10.571826787565305
    49   1      5.2904579512295937      5.2941384950149644                       0
    50   1      5.2904579512295937      7.9412077425224457      2.6429566968913258
    51   1       7.935686926844391      5.2941384950149644      2.6429566968913258
    52   1       7.935686926844391      7.9412077425224457                       0
    53   1      5.2904579512295937      5.2941384950149644      5.2859133937826526
    54   1      5.2904579512295937      7.9412077425224457      7.9288700906739793
    55   1       7.935686926844391      5.2941384950149644      7.9288700906739793
    56   1       7.935686926844391      7.9412077425224457      5.2859133937826526
    57   1      5.2904579512295937      5.2941384950149644      10.571826787565305
    58   1      5.2904579512295937      7.9412077425224457      13.214783484456632
    59   1       7.935686926844391      5.2941384950149644      13.214783484456632
    60   1       7.935686926844391      7.9412077425224457      10.571826787565305
    61   1      5.2904579512295937      10.588276990029929                       0
    62   1      5.2904579512295937       13.23534623753741      2.6429566968913258
    63   1       7.935686926844391      10.588276990029929      2.6429566968913258
    64   1       7.935686926844391       13.23534623753741                       0
    65   1      5.2904579512295937      10.588276990029929      5.2859133937826526
    66   1      5.2904579512295937       13.23534623753741      7.9288700906739793
    67   1       7.935686926844391      10.588276990029929      7.9288700906739793
    68   1       7.935686926844391       13.23534623753741      5.2859133937826526
    69   1      5.2904579512295937      10.588276990029929      10.571826787565305
    70   1      5.2904579512295937       13.23534623753741      13.214783484456632
    71   1       7.935686926844391      10.588276990029929      13.214783484456632
    72   1       7.935686926844391       13.23534623753741      10.571826787565305
    73   1      10.580915902459187                       0                       0
    74   1      10.580915902459187      2.6470692475074817      2.6429566968913258
    75   1      13.226144878073987                       0      2.6429566968913258
    76   1      13.226144878073987      2.6470692475074817                       0
    77   1      10.580915902459187                       0      5.2859133937826526
    78   1      10.580915902459187      2.6470692475074817      7.9288700906739793
    79   1      13.226144878073987                       0      7.9288700906739793
    80   1      13.226144878073987      2.6470692475074817      5.2859133937826526
    81   1      10.580915902459187                       0      10.571826787565305
    82   1      10.580915902459187      2.6470692475074817      13.214783484456632
    83   1      13.226144878073987                       0      13.214783484456632
    84   1      13.226144878073987      2.6470692475074817      10.571826787565305
    85   1      10.580915902459187      5.2941384950149644                       0
    86   1      10.580915902459187      7.9412077425224457      2.6429566968913258
    87   1      13.226144878073987      5.2941384950149644      2.6429566968913258
    88   1      13.226144878073987      7.9412077425224457                       0
    89   1      10.580915902459187      5.2941384950149644      5.2859133937826526
    90   1      10.580915902459187      7.9412077425224457      7.9288700906739793
    91   1      13.226144878073987      5.2941384950149644      7.9288700906739793
    92   1      13.226144878073987      7.9412077425224457      5.2859133937826526
    93   1      10.580915902459187      5.2941384950149644      10.571826787565305
    94   1      10.580915902459187      7.9412077425224457      13.214783484456632
    95   1      13.226144878073987      5.2941384950149644      13.214783484456632
    96   1      13.226144878073987      7.9412077425224457      10.571826787565305
    97   1      10.580915902459187      10.588276990029929                       0
    98   1      10.580915902459187       13.23534623753741      2.6429566968913258
    99   1      13.226144878073987      10.588276990029929      2.6429566968913258
   100   1      13.226144878073987       13.23534623753741                       0
   101   1      10.580915902459187      10.588276990029929      5.2859133937826526
   102   1      10.580915902459187       13.23534623753741      7.9288700906739793
   103   1      13.226144878073987      10.588276990029929      7.9288700906739793
   104   1      13.226144878073987       13.23534623753741      5.2859133937826526
   105   1      10.580915902459187      10.588276990029929      10.571826787565305
   106   1      10.580915902459187       13.23534623753741      13.214783484456632
   107   1      13.226144878073987      10.588276990029929      13.214783484456632
   108   1      13.226144878073987       13.23534623753741      10.571826787565305
