(written by ASE)

108 atoms
1 atom types

0.0      15.743999999999986  xlo xhi
0.0      15.743999999999986  ylo yhi
0.0      15.743999999999986  zlo zhi

Masses

     1      39.947999989723606 # Ar

Atoms # atomic

     1   1                       0                       0                       0
     2   1                       0      2.6239999999999974      2.6239999999999974
     3   1      2.6239999999999974                       0      2.6239999999999974
     4   1      2.6239999999999974      2.6239999999999974                       0
     5   1                       0                       0      5.2479999999999958
     6   1                       0      2.6239999999999974      7.8719999999999937
     7   1      2.6239999999999974                       0      7.8719999999999937
     8   1      2.6239999999999974      2.6239999999999974      5.2479999999999958
     9   1                       0                       0      10.495999999999992
    10   1                       0      2.6239999999999974       13.11999999999999
    11   1      2.6239999999999974                       0       13.11999999999999
    12   1      2.6239999999999974      2.6239999999999974      10.495999999999992
    13   1                       0      5.2479999999999958                       0
    14   1                       0      7.8719999999999937      2.6239999999999974
    15   1      2.6239999999999974      5.2479999999999958      2.6239999999999974
    16   1      2.6239999999999974      7.8719999999999937                       0
    17   1                       0      5.2479999999999958      5.2479999999999958
    18   1                       0      7.8719999999999937      7.8719999999999937
    19   1      2.6239999999999974      5.2479999999999958      7.8719999999999937
    20   1      2.6239999999999974      7.8719999999999937      5.2479999999999958
    21   1                       0      5.2479999999999958      10.495999999999992
    22   1                       0      7.8719999999999937       13.11999999999999
    23   1      2.6239999999999974      5.2479999999999958       13.11999999999999
    24   1      2.6239999999999974      7.8719999999999937      10.495999999999992
    25   1                       0      10.495999999999992                       0
    26   1                       0       13.11999999999999      2.6239999999999974
    27   1      2.6239999999999974      10.495999999999992      2.6239999999999974
    28   1      2.6239999999999974       13.11999999999999                       0
    29   1                       0      10.495999999999992      5.2479999999999958
    30   1                       0       13.11999999999999      7.8719999999999937
    31   1      2.6239999999999974      10.495999999999992      7.8719999999999937
    32   1      2.6239999999999974       13.11999999999999      5.2479999999999958
    33   1                       0      10.495999999999992      10.495999999999992
    34   1                       0       13.11999999999999       13.11999999999999
    35   1      2.6239999999999974      10.495999999999992       13.11999999999999
    36   1      2.6239999999999974       13.11999999999999      10.495999999999992
    37   1      5.2479999999999958                       0                       0
    38   1      5.2479999999999958      2.6239999999999974      2.6239999999999974
    39   1      7.8719999999999937                       0      2.6239999999999974
    40   1      7.8719999999999937      2.6239999999999974                       0
    41   1      5.2479999999999958                       0      5.2479999999999958
    42   1      5.2479999999999958      2.6239999999999974      7.8719999999999937
    43   1      7.8719999999999937                       0      7.8719999999999937
    44   1      7.8719999999999937      2.6239999999999974      5.2479999999999958
    45   1      5.2479999999999958                       0      10.495999999999992
    46   1      5.2479999999999958      2.6239999999999974       13.11999999999999
    47   1      7.8719999999999937                       0       13.11999999999999
    48   1      7.8719999999999937      2.6239999999999974      10.495999999999992
    49   1      5.2479999999999958      5.2479999999999958                       0
    50   1      5.2479999999999958      7.8719999999999937      2.6239999999999974
    51   1      7.8719999999999937      5.2479999999999958      2.6239999999999974
    52   1      7.8719999999999937      7.8719999999999937                       0
    53   1      5.2479999999999958      5.2479999999999958      5.2479999999999958
    54   1      5.2479999999999958      7.8719999999999937      7.8719999999999937
    55   1      7.8719999999999937      5.2479999999999958      7.8719999999999937
    56   1      7.8719999999999937      7.8719999999999937      5.2479999999999958
    57   1      5.2479999999999958      5.2479999999999958      10.495999999999992
    58   1      5.2479999999999958      7.8719999999999937       13.11999999999999
    59   1      7.8719999999999937      5.2479999999999958       13.11999999999999
    60   1      7.8719999999999937      7.8719999999999937      10.495999999999992
    61   1      5.2479999999999958      10.495999999999992                       0
    62   1      5.2479999999999958       13.11999999999999      2.6239999999999974
    63   1      7.8719999999999937      10.495999999999992      2.6239999999999974
    64   1      7.8719999999999937       13.11999999999999                       0
    65   1      5.2479999999999958      10.495999999999992      5.2479999999999958
    66   1      5.2479999999999958       13.11999999999999      7.8719999999999937
    67   1      7.8719999999999937      10.495999999999992      7.8719999999999937
    68   1      7.8719999999999937       13.11999999999999      5.2479999999999958
    69   1      5.2479999999999958      10.495999999999992      10.495999999999992
    70   1      5.2479999999999958       13.11999999999999       13.11999999999999
    71   1      7.8719999999999937      10.495999999999992       13.11999999999999
    72   1      7.8719999999999937       13.11999999999999      10.495999999999992
    73   1      10.495999999999992                       0                       0
    74   1      10.495999999999992      2.6239999999999974      2.6239999999999974
    75   1       13.11999999999999                       0      2.6239999999999974
    76   1       13.11999999999999      2.6239999999999974                       0
    77   1      10.495999999999992                       0      5.2479999999999958
    78   1      10.495999999999992      2.6239999999999974      7.8719999999999937
    79   1       13.11999999999999                       0      7.8719999999999937
    80   1       13.11999999999999      2.6239999999999974      5.2479999999999958
    81   1      10.495999999999992                       0      10.495999999999992
    82   1      10.495999999999992      2.6239999999999974       13.11999999999999
    83   1       13.11999999999999                       0       13.11999999999999
    84   1       13.11999999999999      2.6239999999999974      10.495999999999992
    85   1      10.495999999999992      5.2479999999999958                       0
    86   1      10.495999999999992      7.8719999999999937      2.6239999999999974
    87   1       13.11999999999999      5.2479999999999958      2.6239999999999974
    88   1       13.11999999999999      7.8719999999999937                       0
    89   1      10.495999999999992      5.2479999999999958      5.2479999999999958
    90   1      10.495999999999992      7.8719999999999937      7.8719999999999937
    91   1       13.11999999999999      5.2479999999999958      7.8719999999999937
    92   1       13.11999999999999      7.8719999999999937      5.2479999999999958
    93   1      10.495999999999992      5.2479999999999958      10.495999999999992
    94   1      10.495999999999992      7.8719999999999937       13.11999999999999
    95   1       13.11999999999999      5.2479999999999958       13.11999999999999
    96   1       13.11999999999999      7.8719999999999937      10.495999999999992
    97   1      10.495999999999992      10.495999999999992                       0
    98   1      10.495999999999992       13.11999999999999      2.6239999999999974
    99   1       13.11999999999999      10.495999999999992      2.6239999999999974
   100   1       13.11999999999999       13.11999999999999                       0
   101   1      10.495999999999992      10.495999999999992      5.2479999999999958
   102   1      10.495999999999992       13.11999999999999      7.8719999999999937
   103   1       13.11999999999999      10.495999999999992      7.8719999999999937
   104   1       13.11999999999999       13.11999999999999      5.2479999999999958
   105   1      10.495999999999992      10.495999999999992      10.495999999999992
   106   1      10.495999999999992       13.11999999999999       13.11999999999999
   107   1       13.11999999999999      10.495999999999992       13.11999999999999
   108   1       13.11999999999999       13.11999999999999      10.495999999999992
