(written by ASE)

1372 atoms
1 atom types

0.0      36.736000000000004  xlo xhi
0.0      36.736000000000004  ylo yhi
0.0      36.736000000000004  zlo zhi

Masses

     1      39.947999989723606 # Ar

Atoms # atomic

     1   1                       0                       0                       0
     2   1                       0      2.6239999999999997      2.6239999999999997
     3   1      2.6239999999999997                       0      2.6239999999999997
     4   1      2.6239999999999997      2.6239999999999997                       0
     5   1                       0                       0      5.2480000000000002
     6   1                       0      2.6239999999999997      7.8719999999999999
     7   1      2.6239999999999997                       0      7.8719999999999999
     8   1      2.6239999999999997      2.6239999999999997      5.2480000000000002
     9   1                       0                       0                  10.496
    10   1                       0      2.6239999999999997      13.120000000000001
    11   1      2.6239999999999997                       0      13.120000000000001
    12   1      2.6239999999999997      2.6239999999999997                  10.496
    13   1                       0                       0                  15.744
    14   1                       0      2.6239999999999997      18.367999999999999
    15   1      2.6239999999999997                       0      18.367999999999999
    16   1      2.6239999999999997      2.6239999999999997                  15.744
    17   1                       0                       0      20.992000000000001
    18   1                       0      2.6239999999999997                  23.616
    19   1      2.6239999999999997                       0                  23.616
    20   1      2.6239999999999997      2.6239999999999997      20.992000000000001
    21   1                       0                       0      26.240000000000002
    22   1                       0      2.6239999999999997      28.864000000000001
    23   1      2.6239999999999997                       0      28.864000000000001
    24   1      2.6239999999999997      2.6239999999999997      26.240000000000002
    25   1                       0                       0                  31.488
    26   1                       0      2.6239999999999997      34.112000000000002
    27   1      2.6239999999999997                       0      34.112000000000002
    28   1      2.6239999999999997      2.6239999999999997                  31.488
    29   1                       0      5.2480000000000002                       0
    30   1                       0      7.8719999999999999      2.6239999999999997
    31   1      2.6239999999999997      5.2480000000000002      2.6239999999999997
    32   1      2.6239999999999997      7.8719999999999999                       0
    33   1                       0      5.2480000000000002      5.2480000000000002
    34   1                       0      7.8719999999999999      7.8719999999999999
    35   1      2.6239999999999997      5.2480000000000002      7.8719999999999999
    36   1      2.6239999999999997      7.8719999999999999      5.2480000000000002
    37   1                       0      5.2480000000000002                  10.496
    38   1                       0      7.8719999999999999      13.120000000000001
    39   1      2.6239999999999997      5.2480000000000002      13.120000000000001
    40   1      2.6239999999999997      7.8719999999999999                  10.496
    41   1                       0      5.2480000000000002                  15.744
    42   1                       0      7.8719999999999999      18.367999999999999
    43   1      2.6239999999999997      5.2480000000000002      18.367999999999999
    44   1      2.6239999999999997      7.8719999999999999                  15.744
    45   1                       0      5.2480000000000002      20.992000000000001
    46   1                       0      7.8719999999999999                  23.616
    47   1      2.6239999999999997      5.2480000000000002                  23.616
    48   1      2.6239999999999997      7.8719999999999999      20.992000000000001
    49   1                       0      5.2480000000000002      26.240000000000002
    50   1                       0      7.8719999999999999      28.864000000000001
    51   1      2.6239999999999997      5.2480000000000002      28.864000000000001
    52   1      2.6239999999999997      7.8719999999999999      26.240000000000002
    53   1                       0      5.2480000000000002                  31.488
    54   1                       0      7.8719999999999999      34.112000000000002
    55   1      2.6239999999999997      5.2480000000000002      34.112000000000002
    56   1      2.6239999999999997      7.8719999999999999                  31.488
    57   1                       0                  10.496                       0
    58   1                       0      13.120000000000001      2.6239999999999997
    59   1      2.6239999999999997                  10.496      2.6239999999999997
    60   1      2.6239999999999997      13.120000000000001                       0
    61   1                       0                  10.496      5.2480000000000002
    62   1                       0      13.120000000000001      7.8719999999999999
    63   1      2.6239999999999997                  10.496      7.8719999999999999
    64   1      2.6239999999999997      13.120000000000001      5.2480000000000002
    65   1                       0                  10.496                  10.496
    66   1                       0      13.120000000000001      13.120000000000001
    67   1      2.6239999999999997                  10.496      13.120000000000001
    68   1      2.6239999999999997      13.120000000000001                  10.496
    69   1                       0                  10.496                  15.744
    70   1                       0      13.120000000000001      18.367999999999999
    71   1      2.6239999999999997                  10.496      18.367999999999999
    72   1      2.6239999999999997      13.120000000000001                  15.744
    73   1                       0                  10.496      20.992000000000001
    74   1                       0      13.120000000000001                  23.616
    75   1      2.6239999999999997                  10.496                  23.616
    76   1      2.6239999999999997      13.120000000000001      20.992000000000001
    77   1                       0                  10.496      26.240000000000002
    78   1                       0      13.120000000000001      28.864000000000001
    79   1      2.6239999999999997                  10.496      28.864000000000001
    80   1      2.6239999999999997      13.120000000000001      26.240000000000002
    81   1                       0                  10.496                  31.488
    82   1                       0      13.120000000000001      34.112000000000002
    83   1      2.6239999999999997                  10.496      34.112000000000002
    84   1      2.6239999999999997      13.120000000000001                  31.488
    85   1                       0                  15.744                       0
    86   1                       0      18.367999999999999      2.6239999999999997
    87   1      2.6239999999999997                  15.744      2.6239999999999997
    88   1      2.6239999999999997      18.367999999999999                       0
    89   1                       0                  15.744      5.2480000000000002
    90   1                       0      18.367999999999999      7.8719999999999999
    91   1      2.6239999999999997                  15.744      7.8719999999999999
    92   1      2.6239999999999997      18.367999999999999      5.2480000000000002
    93   1                       0                  15.744                  10.496
    94   1                       0      18.367999999999999      13.120000000000001
    95   1      2.6239999999999997                  15.744      13.120000000000001
    96   1      2.6239999999999997      18.367999999999999                  10.496
    97   1                       0                  15.744                  15.744
    98   1                       0      18.367999999999999      18.367999999999999
    99   1      2.6239999999999997                  15.744      18.367999999999999
   100   1      2.6239999999999997      18.367999999999999                  15.744
   101   1                       0                  15.744      20.992000000000001
   102   1                       0      18.367999999999999                  23.616
   103   1      2.6239999999999997                  15.744                  23.616
   104   1      2.6239999999999997      18.367999999999999      20.992000000000001
   105   1                       0                  15.744      26.240000000000002
   106   1                       0      18.367999999999999      28.864000000000001
   107   1      2.6239999999999997                  15.744      28.864000000000001
   108   1      2.6239999999999997      18.367999999999999      26.240000000000002
   109   1                       0                  15.744                  31.488
   110   1                       0      18.367999999999999      34.112000000000002
   111   1      2.6239999999999997                  15.744      34.112000000000002
   112   1      2.6239999999999997      18.367999999999999                  31.488
   113   1                       0      20.992000000000001                       0
   114   1                       0                  23.616      2.6239999999999997
   115   1      2.6239999999999997      20.992000000000001      2.6239999999999997
   116   1      2.6239999999999997                  23.616                       0
   117   1                       0      20.992000000000001      5.2480000000000002
   118   1                       0                  23.616      7.8719999999999999
   119   1      2.6239999999999997      20.992000000000001      7.8719999999999999
   120   1      2.6239999999999997                  23.616      5.2480000000000002
   121   1                       0      20.992000000000001                  10.496
   122   1                       0                  23.616      13.120000000000001
   123   1      2.6239999999999997      20.992000000000001      13.120000000000001
   124   1      2.6239999999999997                  23.616                  10.496
   125   1                       0      20.992000000000001                  15.744
   126   1                       0                  23.616      18.367999999999999
   127   1      2.6239999999999997      20.992000000000001      18.367999999999999
   128   1      2.6239999999999997                  23.616                  15.744
   129   1                       0      20.992000000000001      20.992000000000001
   130   1                       0                  23.616                  23.616
   131   1      2.6239999999999997      20.992000000000001                  23.616
   132   1      2.6239999999999997                  23.616      20.992000000000001
   133   1                       0      20.992000000000001      26.240000000000002
   134   1                       0                  23.616      28.864000000000001
   135   1      2.6239999999999997      20.992000000000001      28.864000000000001
   136   1      2.6239999999999997                  23.616      26.240000000000002
   137   1                       0      20.992000000000001                  31.488
   138   1                       0                  23.616      34.112000000000002
   139   1      2.6239999999999997      20.992000000000001      34.112000000000002
   140   1      2.6239999999999997                  23.616                  31.488
   141   1                       0      26.240000000000002                       0
   142   1                       0      28.864000000000001      2.6239999999999997
   143   1      2.6239999999999997      26.240000000000002      2.6239999999999997
   144   1      2.6239999999999997      28.864000000000001                       0
   145   1                       0      26.240000000000002      5.2480000000000002
   146   1                       0      28.864000000000001      7.8719999999999999
   147   1      2.6239999999999997      26.240000000000002      7.8719999999999999
   148   1      2.6239999999999997      28.864000000000001      5.2480000000000002
   149   1                       0      26.240000000000002                  10.496
   150   1                       0      28.864000000000001      13.120000000000001
   151   1      2.6239999999999997      26.240000000000002      13.120000000000001
   152   1      2.6239999999999997      28.864000000000001                  10.496
   153   1                       0      26.240000000000002                  15.744
   154   1                       0      28.864000000000001      18.367999999999999
   155   1      2.6239999999999997      26.240000000000002      18.367999999999999
   156   1      2.6239999999999997      28.864000000000001                  15.744
   157   1                       0      26.240000000000002      20.992000000000001
   158   1                       0      28.864000000000001                  23.616
   159   1      2.6239999999999997      26.240000000000002                  23.616
   160   1      2.6239999999999997      28.864000000000001      20.992000000000001
   161   1                       0      26.240000000000002      26.240000000000002
   162   1                       0      28.864000000000001      28.864000000000001
   163   1      2.6239999999999997      26.240000000000002      28.864000000000001
   164   1      2.6239999999999997      28.864000000000001      26.240000000000002
   165   1                       0      26.240000000000002                  31.488
   166   1                       0      28.864000000000001      34.112000000000002
   167   1      2.6239999999999997      26.240000000000002      34.112000000000002
   168   1      2.6239999999999997      28.864000000000001                  31.488
   169   1                       0                  31.488                       0
   170   1                       0      34.112000000000002      2.6239999999999997
   171   1      2.6239999999999997                  31.488      2.6239999999999997
   172   1      2.6239999999999997      34.112000000000002                       0
   173   1                       0                  31.488      5.2480000000000002
   174   1                       0      34.112000000000002      7.8719999999999999
   175   1      2.6239999999999997                  31.488      7.8719999999999999
   176   1      2.6239999999999997      34.112000000000002      5.2480000000000002
   177   1                       0                  31.488                  10.496
   178   1                       0      34.112000000000002      13.120000000000001
   179   1      2.6239999999999997                  31.488      13.120000000000001
   180   1      2.6239999999999997      34.112000000000002                  10.496
   181   1                       0                  31.488                  15.744
   182   1                       0      34.112000000000002      18.367999999999999
   183   1      2.6239999999999997                  31.488      18.367999999999999
   184   1      2.6239999999999997      34.112000000000002                  15.744
   185   1                       0                  31.488      20.992000000000001
   186   1                       0      34.112000000000002                  23.616
   187   1      2.6239999999999997                  31.488                  23.616
   188   1      2.6239999999999997      34.112000000000002      20.992000000000001
   189   1                       0                  31.488      26.240000000000002
   190   1                       0      34.112000000000002      28.864000000000001
   191   1      2.6239999999999997                  31.488      28.864000000000001
   192   1      2.6239999999999997      34.112000000000002      26.240000000000002
   193   1                       0                  31.488                  31.488
   194   1                       0      34.112000000000002      34.112000000000002
   195   1      2.6239999999999997                  31.488      34.112000000000002
   196   1      2.6239999999999997      34.112000000000002                  31.488
   197   1      5.2480000000000002                       0                       0
   198   1      5.2480000000000002      2.6239999999999997      2.6239999999999997
   199   1      7.8719999999999999                       0      2.6239999999999997
   200   1      7.8719999999999999      2.6239999999999997                       0
   201   1      5.2480000000000002                       0      5.2480000000000002
   202   1      5.2480000000000002      2.6239999999999997      7.8719999999999999
   203   1      7.8719999999999999                       0      7.8719999999999999
   204   1      7.8719999999999999      2.6239999999999997      5.2480000000000002
   205   1      5.2480000000000002                       0                  10.496
   206   1      5.2480000000000002      2.6239999999999997      13.120000000000001
   207   1      7.8719999999999999                       0      13.120000000000001
   208   1      7.8719999999999999      2.6239999999999997                  10.496
   209   1      5.2480000000000002                       0                  15.744
   210   1      5.2480000000000002      2.6239999999999997      18.367999999999999
   211   1      7.8719999999999999                       0      18.367999999999999
   212   1      7.8719999999999999      2.6239999999999997                  15.744
   213   1      5.2480000000000002                       0      20.992000000000001
   214   1      5.2480000000000002      2.6239999999999997                  23.616
   215   1      7.8719999999999999                       0                  23.616
   216   1      7.8719999999999999      2.6239999999999997      20.992000000000001
   217   1      5.2480000000000002                       0      26.240000000000002
   218   1      5.2480000000000002      2.6239999999999997      28.864000000000001
   219   1      7.8719999999999999                       0      28.864000000000001
   220   1      7.8719999999999999      2.6239999999999997      26.240000000000002
   221   1      5.2480000000000002                       0                  31.488
   222   1      5.2480000000000002      2.6239999999999997      34.112000000000002
   223   1      7.8719999999999999                       0      34.112000000000002
   224   1      7.8719999999999999      2.6239999999999997                  31.488
   225   1      5.2480000000000002      5.2480000000000002                       0
   226   1      5.2480000000000002      7.8719999999999999      2.6239999999999997
   227   1      7.8719999999999999      5.2480000000000002      2.6239999999999997
   228   1      7.8719999999999999      7.8719999999999999                       0
   229   1      5.2480000000000002      5.2480000000000002      5.2480000000000002
   230   1      5.2480000000000002      7.8719999999999999      7.8719999999999999
   231   1      7.8719999999999999      5.2480000000000002      7.8719999999999999
   232   1      7.8719999999999999      7.8719999999999999      5.2480000000000002
   233   1      5.2480000000000002      5.2480000000000002                  10.496
   234   1      5.2480000000000002      7.8719999999999999      13.120000000000001
   235   1      7.8719999999999999      5.2480000000000002      13.120000000000001
   236   1      7.8719999999999999      7.8719999999999999                  10.496
   237   1      5.2480000000000002      5.2480000000000002                  15.744
   238   1      5.2480000000000002      7.8719999999999999      18.367999999999999
   239   1      7.8719999999999999      5.2480000000000002      18.367999999999999
   240   1      7.8719999999999999      7.8719999999999999                  15.744
   241   1      5.2480000000000002      5.2480000000000002      20.992000000000001
   242   1      5.2480000000000002      7.8719999999999999                  23.616
   243   1      7.8719999999999999      5.2480000000000002                  23.616
   244   1      7.8719999999999999      7.8719999999999999      20.992000000000001
   245   1      5.2480000000000002      5.2480000000000002      26.240000000000002
   246   1      5.2480000000000002      7.8719999999999999      28.864000000000001
   247   1      7.8719999999999999      5.2480000000000002      28.864000000000001
   248   1      7.8719999999999999      7.8719999999999999      26.240000000000002
   249   1      5.2480000000000002      5.2480000000000002                  31.488
   250   1      5.2480000000000002      7.8719999999999999      34.112000000000002
   251   1      7.8719999999999999      5.2480000000000002      34.112000000000002
   252   1      7.8719999999999999      7.8719999999999999                  31.488
   253   1      5.2480000000000002                  10.496                       0
   254   1      5.2480000000000002      13.120000000000001      2.6239999999999997
   255   1      7.8719999999999999                  10.496      2.6239999999999997
   256   1      7.8719999999999999      13.120000000000001                       0
   257   1      5.2480000000000002                  10.496      5.2480000000000002
   258   1      5.2480000000000002      13.120000000000001      7.8719999999999999
   259   1      7.8719999999999999                  10.496      7.8719999999999999
   260   1      7.8719999999999999      13.120000000000001      5.2480000000000002
   261   1      5.2480000000000002                  10.496                  10.496
   262   1      5.2480000000000002      13.120000000000001      13.120000000000001
   263   1      7.8719999999999999                  10.496      13.120000000000001
   264   1      7.8719999999999999      13.120000000000001                  10.496
   265   1      5.2480000000000002                  10.496                  15.744
   266   1      5.2480000000000002      13.120000000000001      18.367999999999999
   267   1      7.8719999999999999                  10.496      18.367999999999999
   268   1      7.8719999999999999      13.120000000000001                  15.744
   269   1      5.2480000000000002                  10.496      20.992000000000001
   270   1      5.2480000000000002      13.120000000000001                  23.616
   271   1      7.8719999999999999                  10.496                  23.616
   272   1      7.8719999999999999      13.120000000000001      20.992000000000001
   273   1      5.2480000000000002                  10.496      26.240000000000002
   274   1      5.2480000000000002      13.120000000000001      28.864000000000001
   275   1      7.8719999999999999                  10.496      28.864000000000001
   276   1      7.8719999999999999      13.120000000000001      26.240000000000002
   277   1      5.2480000000000002                  10.496                  31.488
   278   1      5.2480000000000002      13.120000000000001      34.112000000000002
   279   1      7.8719999999999999                  10.496      34.112000000000002
   280   1      7.8719999999999999      13.120000000000001                  31.488
   281   1      5.2480000000000002                  15.744                       0
   282   1      5.2480000000000002      18.367999999999999      2.6239999999999997
   283   1      7.8719999999999999                  15.744      2.6239999999999997
   284   1      7.8719999999999999      18.367999999999999                       0
   285   1      5.2480000000000002                  15.744      5.2480000000000002
   286   1      5.2480000000000002      18.367999999999999      7.8719999999999999
   287   1      7.8719999999999999                  15.744      7.8719999999999999
   288   1      7.8719999999999999      18.367999999999999      5.2480000000000002
   289   1      5.2480000000000002                  15.744                  10.496
   290   1      5.2480000000000002      18.367999999999999      13.120000000000001
   291   1      7.8719999999999999                  15.744      13.120000000000001
   292   1      7.8719999999999999      18.367999999999999                  10.496
   293   1      5.2480000000000002                  15.744                  15.744
   294   1      5.2480000000000002      18.367999999999999      18.367999999999999
   295   1      7.8719999999999999                  15.744      18.367999999999999
   296   1      7.8719999999999999      18.367999999999999                  15.744
   297   1      5.2480000000000002                  15.744      20.992000000000001
   298   1      5.2480000000000002      18.367999999999999                  23.616
   299   1      7.8719999999999999                  15.744                  23.616
   300   1      7.8719999999999999      18.367999999999999      20.992000000000001
   301   1      5.2480000000000002                  15.744      26.240000000000002
   302   1      5.2480000000000002      18.367999999999999      28.864000000000001
   303   1      7.8719999999999999                  15.744      28.864000000000001
   304   1      7.8719999999999999      18.367999999999999      26.240000000000002
   305   1      5.2480000000000002                  15.744                  31.488
   306   1      5.2480000000000002      18.367999999999999      34.112000000000002
   307   1      7.8719999999999999                  15.744      34.112000000000002
   308   1      7.8719999999999999      18.367999999999999                  31.488
   309   1      5.2480000000000002      20.992000000000001                       0
   310   1      5.2480000000000002                  23.616      2.6239999999999997
   311   1      7.8719999999999999      20.992000000000001      2.6239999999999997
   312   1      7.8719999999999999                  23.616                       0
   313   1      5.2480000000000002      20.992000000000001      5.2480000000000002
   314   1      5.2480000000000002                  23.616      7.8719999999999999
   315   1      7.8719999999999999      20.992000000000001      7.8719999999999999
   316   1      7.8719999999999999                  23.616      5.2480000000000002
   317   1      5.2480000000000002      20.992000000000001                  10.496
   318   1      5.2480000000000002                  23.616      13.120000000000001
   319   1      7.8719999999999999      20.992000000000001      13.120000000000001
   320   1      7.8719999999999999                  23.616                  10.496
   321   1      5.2480000000000002      20.992000000000001                  15.744
   322   1      5.2480000000000002                  23.616      18.367999999999999
   323   1      7.8719999999999999      20.992000000000001      18.367999999999999
   324   1      7.8719999999999999                  23.616                  15.744
   325   1      5.2480000000000002      20.992000000000001      20.992000000000001
   326   1      5.2480000000000002                  23.616                  23.616
   327   1      7.8719999999999999      20.992000000000001                  23.616
   328   1      7.8719999999999999                  23.616      20.992000000000001
   329   1      5.2480000000000002      20.992000000000001      26.240000000000002
   330   1      5.2480000000000002                  23.616      28.864000000000001
   331   1      7.8719999999999999      20.992000000000001      28.864000000000001
   332   1      7.8719999999999999                  23.616      26.240000000000002
   333   1      5.2480000000000002      20.992000000000001                  31.488
   334   1      5.2480000000000002                  23.616      34.112000000000002
   335   1      7.8719999999999999      20.992000000000001      34.112000000000002
   336   1      7.8719999999999999                  23.616                  31.488
   337   1      5.2480000000000002      26.240000000000002                       0
   338   1      5.2480000000000002      28.864000000000001      2.6239999999999997
   339   1      7.8719999999999999      26.240000000000002      2.6239999999999997
   340   1      7.8719999999999999      28.864000000000001                       0
   341   1      5.2480000000000002      26.240000000000002      5.2480000000000002
   342   1      5.2480000000000002      28.864000000000001      7.8719999999999999
   343   1      7.8719999999999999      26.240000000000002      7.8719999999999999
   344   1      7.8719999999999999      28.864000000000001      5.2480000000000002
   345   1      5.2480000000000002      26.240000000000002                  10.496
   346   1      5.2480000000000002      28.864000000000001      13.120000000000001
   347   1      7.8719999999999999      26.240000000000002      13.120000000000001
   348   1      7.8719999999999999      28.864000000000001                  10.496
   349   1      5.2480000000000002      26.240000000000002                  15.744
   350   1      5.2480000000000002      28.864000000000001      18.367999999999999
   351   1      7.8719999999999999      26.240000000000002      18.367999999999999
   352   1      7.8719999999999999      28.864000000000001                  15.744
   353   1      5.2480000000000002      26.240000000000002      20.992000000000001
   354   1      5.2480000000000002      28.864000000000001                  23.616
   355   1      7.8719999999999999      26.240000000000002                  23.616
   356   1      7.8719999999999999      28.864000000000001      20.992000000000001
   357   1      5.2480000000000002      26.240000000000002      26.240000000000002
   358   1      5.2480000000000002      28.864000000000001      28.864000000000001