(written by ASE)

108 atoms
1 atom types

0.0                  15.744  xlo xhi
0.0                  15.744  ylo yhi
0.0                  15.744  zlo zhi

Masses

     1      39.947999989723606 # Ar

Atoms # atomic

     1   1                       0                       0                       0
     2   1                       0      2.6239999999999997      2.6239999999999997
     3   1      2.6239999999999997                       0      2.6239999999999997
     4   1      2.6239999999999997      2.6239999999999997                       0
     5   1                       0                       0      5.2480000000000002
     6   1                       0      2.6239999999999997      7.8719999999999999
     7   1      2.6239999999999997                       0      7.8719999999999999
     8   1      2.6239999999999997      2.6239999999999997      5.2480000000000002
     9   1                       0                       0                  10.496
    10   1                       0      2.6239999999999997      13.120000000000001
    11   1      2.6239999999999997                       0      13.120000000000001
    12   1      2.6239999999999997      2.6239999999999997                  10.496
    13   1                       0      5.2480000000000002                       0
    14   1                       0      7.8719999999999999      2.6239999999999997
    15   1      2.6239999999999997      5.2480000000000002      2.6239999999999997
    16   1      2.6239999999999997      7.8719999999999999                       0
    17   1                       0      5.2480000000000002      5.2480000000000002
    18   1                       0      7.8719999999999999      7.8719999999999999
    19   1      2.6239999999999997      5.2480000000000002      7.8719999999999999
    20   1      2.6239999999999997      7.8719999999999999      5.2480000000000002
    21   1                       0      5.2480000000000002                  10.496
    22   1                       0      7.8719999999999999      13.120000000000001
    23   1      2.6239999999999997      5.2480000000000002      13.120000000000001
    24   1      2.6239999999999997      7.8719999999999999                  10.496
    25   1                       0                  10.496                       0
    26   1                       0      13.120000000000001      2.6239999999999997
    27   1      2.6239999999999997                  10.496      2.6239999999999997
    28   1      2.6239999999999997      13.120000000000001                       0
    29   1                       0                  10.496      5.2480000000000002
    30   1                       0      13.120000000000001      7.8719999999999999
    31   1      2.6239999999999997                  10.496      7.8719999999999999
    32   1      2.6239999999999997      13.120000000000001      5.2480000000000002
    33   1                       0                  10.496                  10.496
    34   1                       0      13.120000000000001      13.120000000000001
    35   1      2.6239999999999997                  10.496      13.120000000000001
    36   1      2.6239999999999997      13.120000000000001                  10.496
    37   1      5.2480000000000002                       0                       0
    38   1      5.2480000000000002      2.6239999999999997      2.6239999999999997
    39   1      7.8719999999999999                       0      2.6239999999999997
    40   1      7.8719999999999999      2.6239999999999997                       0
    41   1      5.2480000000000002                       0      5.2480000000000002
    42   1      5.2480000000000002      2.6239999999999997      7.8719999999999999
    43   1      7.8719999999999999                       0      7.8719999999999999
    44   1      7.8719999999999999      2.6239999999999997      5.2480000000000002
    45   1      5.2480000000000002                       0                  10.496
    46   1      5.2480000000000002      2.6239999999999997      13.120000000000001
    47   1      7.8719999999999999                       0      13.120000000000001
    48   1      7.8719999999999999      2.6239999999999997                  10.496
    49   1      5.2480000000000002      5.2480000000000002                       0
    50   1      5.2480000000000002      7.8719999999999999      2.6239999999999997
    51   1      7.8719999999999999      5.2480000000000002      2.6239999999999997
    52   1      7.8719999999999999      7.8719999999999999                       0
    53   1      5.2480000000000002      5.2480000000000002      5.2480000000000002
    54   1      5.2480000000000002      7.8719999999999999      7.8719999999999999
    55   1      7.8719999999999999      5.2480000000000002      7.8719999999999999
    56   1      7.8719999999999999      7.8719999999999999      5.2480000000000002
    57   1      5.2480000000000002      5.2480000000000002                  10.496
    58   1      5.2480000000000002      7.8719999999999999      13.120000000000001
    59   1      7.8719999999999999      5.2480000000000002      13.120000000000001
    60   1      7.8719999999999999      7.8719999999999999                  10.496
    61   1      5.2480000000000002                  10.496                       0
    62   1      5.2480000000000002      13.120000000000001      2.6239999999999997
    63   1      7.8719999999999999                  10.496      2.6239999999999997
    64   1      7.8719999999999999      13.120000000000001                       0
    65   1      5.2480000000000002                  10.496      5.2480000000000002
    66   1      5.2480000000000002      13.120000000000001      7.8719999999999999
    67   1      7.8719999999999999                  10.496      7.8719999999999999
    68   1      7.8719999999999999      13.120000000000001      5.2480000000000002
    69   1      5.2480000000000002                  10.496                  10.496
    70   1      5.2480000000000002      13.120000000000001      13.120000000000001
    71   1      7.8719999999999999                  10.496      13.120000000000001
    72   1      7.8719999999999999      13.120000000000001                  10.496
    73   1                  10.496                       0                       0
    74   1                  10.496      2.6239999999999997      2.6239999999999997
    75   1      13.120000000000001                       0      2.6239999999999997
    76   1      13.120000000000001      2.6239999999999997                       0
    77   1                  10.496                       0      5.2480000000000002
    78   1                  10.496      2.6239999999999997      7.8719999999999999
    79   1      13.120000000000001                       0      7.8719999999999999
    80   1      13.120000000000001      2.6239999999999997      5.2480000000000002
    81   1                  10.496                       0                  10.496
    82   1                  10.496      2.6239999999999997      13.120000000000001
    83   1      13.120000000000001                       0      13.120000000000001
    84   1      13.120000000000001      2.6239999999999997                  10.496
    85   1                  10.496      5.2480000000000002                       0
    86   1                  10.496      7.8719999999999999      2.6239999999999997
    87   1      13.120000000000001      5.2480000000000002      2.6239999999999997
    88   1      13.120000000000001      7.8719999999999999                       0
    89   1                  10.496      5.2480000000000002      5.2480000000000002
    90   1                  10.496      7.8719999999999999      7.8719999999999999
    91   1      13.120000000000001      5.2480000000000002      7.8719999999999999
    92   1      13.120000000000001      7.8719999999999999      5.2480000000000002
    93   1                  10.496      5.2480000000000002                  10.496
    94   1                  10.496      7.8719999999999999      13.120000000000001
    95   1      13.120000000000001      5.2480000000000002      13.120000000000001
    96   1      13.120000000000001      7.8719999999999999                  10.496
    97   1                  10.496                  10.496                       0
    98   1                  10.496      13.120000000000001      2.6239999999999997
    99   1      13.120000000000001                  10.496      2.6239999999999997
   100   1      13.120000000000001      13.120000000000001                       0
   101   1                  10.496                  10.496      5.2480000000000002
   102   1                  10.496      13.120000000000001      7.8719999999999999
   103   1      13.120000000000001                  10.496      7.8719999999999999
   104   1      13.120000000000001      13.120000000000001      5.2480000000000002
   105   1                  10.496                  10.496                  10.496
   106   1                  10.496      13.120000000000001      13.120000000000001
   107   1      13.120000000000001                  10.496      13.120000000000001
   108   1      13.120000000000001      13.120000000000001                  10.496
