(written by ASE)

500 atoms
1 atom types

0.0      26.240000000000002  xlo xhi
0.0      26.240000000000002  ylo yhi
0.0      26.240000000000002  zlo zhi

Masses

     1      39.947999989723606 # Ar

Atoms # atomic

     1   1                       0                       0                       0
     2   1                       0      2.6239999999999997      2.6239999999999997
     3   1      2.6239999999999997                       0      2.6239999999999997
     4   1      2.6239999999999997      2.6239999999999997                       0
     5   1                       0                       0      5.2480000000000002
     6   1                       0      2.6239999999999997      7.8719999999999999
     7   1      2.6239999999999997                       0      7.8719999999999999
     8   1      2.6239999999999997      2.6239999999999997      5.2480000000000002
     9   1                       0                       0                  10.496
    10   1                       0      2.6239999999999997      13.120000000000001
    11   1      2.6239999999999997                       0      13.120000000000001
    12   1      2.6239999999999997      2.6239999999999997                  10.496
    13   1                       0                       0                  15.744
    14   1                       0      2.6239999999999997      18.367999999999999
    15   1      2.6239999999999997                       0      18.367999999999999
    16   1      2.6239999999999997      2.6239999999999997                  15.744
    17   1                       0                       0      20.992000000000001
    18   1                       0      2.6239999999999997                  23.616
    19   1      2.6239999999999997                       0                  23.616
    20   1      2.6239999999999997      2.6239999999999997      20.992000000000001
    21   1                       0      5.2480000000000002                       0
    22   1                       0      7.8719999999999999      2.6239999999999997
    23   1      2.6239999999999997      5.2480000000000002      2.6239999999999997
    24   1      2.6239999999999997      7.8719999999999999                       0
    25   1                       0      5.2480000000000002      5.2480000000000002
    26   1                       0      7.8719999999999999      7.8719999999999999
    27   1      2.6239999999999997      5.2480000000000002      7.8719999999999999
    28   1      2.6239999999999997      7.8719999999999999      5.2480000000000002
    29   1                       0      5.2480000000000002                  10.496
    30   1                       0      7.8719999999999999      13.120000000000001
    31   1      2.6239999999999997      5.2480000000000002      13.120000000000001
    32   1      2.6239999999999997      7.8719999999999999                  10.496
    33   1                       0      5.2480000000000002                  15.744
    34   1                       0      7.8719999999999999      18.367999999999999
    35   1      2.6239999999999997      5.2480000000000002      18.367999999999999
    36   1      2.6239999999999997      7.8719999999999999                  15.744
    37   1                       0      5.2480000000000002      20.992000000000001
    38   1                       0      7.8719999999999999                  23.616
    39   1      2.6239999999999997      5.2480000000000002                  23.616
    40   1      2.6239999999999997      7.8719999999999999      20.992000000000001
    41   1                       0                  10.496                       0
    42   1                       0      13.120000000000001      2.6239999999999997
    43   1      2.6239999999999997                  10.496      2.6239999999999997
    44   1      2.6239999999999997      13.120000000000001                       0
    45   1                       0                  10.496      5.2480000000000002
    46   1                       0      13.120000000000001      7.8719999999999999
    47   1      2.6239999999999997                  10.496      7.8719999999999999
    48   1      2.6239999999999997      13.120000000000001      5.2480000000000002
    49   1                       0                  10.496                  10.496
    50   1                       0      13.120000000000001      13.120000000000001
    51   1      2.6239999999999997                  10.496      13.120000000000001
    52   1      2.6239999999999997      13.120000000000001                  10.496
    53   1                       0                  10.496                  15.744
    54   1                       0      13.120000000000001      18.367999999999999
    55   1      2.6239999999999997                  10.496      18.367999999999999
    56   1      2.6239999999999997      13.120000000000001                  15.744
    57   1                       0                  10.496      20.992000000000001
    58   1                       0      13.120000000000001                  23.616
    59   1      2.6239999999999997                  10.496                  23.616
    60   1      2.6239999999999997      13.120000000000001      20.992000000000001
    61   1                       0                  15.744                       0
    62   1                       0      18.367999999999999      2.6239999999999997
    63   1      2.6239999999999997                  15.744      2.6239999999999997
    64   1      2.6239999999999997      18.367999999999999                       0
    65   1                       0                  15.744      5.2480000000000002
    66   1                       0      18.367999999999999      7.8719999999999999
    67   1      2.6239999999999997                  15.744      7.8719999999999999
    68   1      2.6239999999999997      18.367999999999999      5.2480000000000002
    69   1                       0                  15.744                  10.496
    70   1                       0      18.367999999999999      13.120000000000001
    71   1      2.6239999999999997                  15.744      13.120000000000001
    72   1      2.6239999999999997      18.367999999999999                  10.496
    73   1                       0                  15.744                  15.744
    74   1                       0      18.367999999999999      18.367999999999999
    75   1      2.6239999999999997                  15.744      18.367999999999999
    76   1      2.6239999999999997      18.367999999999999                  15.744
    77   1                       0                  15.744      20.992000000000001
    78   1                       0      18.367999999999999                  23.616
    79   1      2.6239999999999997                  15.744                  23.616
    80   1      2.6239999999999997      18.367999999999999      20.992000000000001
    81   1                       0      20.992000000000001                       0
    82   1                       0                  23.616      2.6239999999999997
    83   1      2.6239999999999997      20.992000000000001      2.6239999999999997
    84   1      2.6239999999999997                  23.616                       0
    85   1                       0      20.992000000000001      5.2480000000000002
    86   1                       0                  23.616      7.8719999999999999
    87   1      2.6239999999999997      20.992000000000001      7.8719999999999999
    88   1      2.6239999999999997                  23.616      5.2480000000000002
    89   1                       0      20.992000000000001                  10.496
    90   1                       0                  23.616      13.120000000000001
    91   1      2.6239999999999997      20.992000000000001      13.120000000000001
    92   1      2.6239999999999997                  23.616                  10.496
    93   1                       0      20.992000000000001                  15.744
    94   1                       0                  23.616      18.367999999999999
    95   1      2.6239999999999997      20.992000000000001      18.367999999999999
    96   1      2.6239999999999997                  23.616                  15.744
    97   1                       0      20.992000000000001      20.992000000000001
    98   1                       0                  23.616                  23.616
    99   1      2.6239999999999997      20.992000000000001                  23.616
   100   1      2.6239999999999997                  23.616      20.992000000000001
   101   1      5.2480000000000002                       0                       0
   102   1      5.2480000000000002      2.6239999999999997      2.6239999999999997
   103   1      7.8719999999999999                       0      2.6239999999999997
   104   1      7.8719999999999999      2.6239999999999997                       0
   105   1      5.2480000000000002                       0      5.2480000000000002
   106   1      5.2480000000000002      2.6239999999999997      7.8719999999999999
   107   1      7.8719999999999999                       0      7.8719999999999999
   108   1      7.8719999999999999      2.6239999999999997      5.2480000000000002
   109   1      5.2480000000000002                       0                  10.496
   110   1      5.2480000000000002      2.6239999999999997      13.120000000000001
   111   1      7.8719999999999999                       0      13.120000000000001
   112   1      7.8719999999999999      2.6239999999999997                  10.496
   113   1      5.2480000000000002                       0                  15.744
   114   1      5.2480000000000002      2.6239999999999997      18.367999999999999
   115   1      7.8719999999999999                       0      18.367999999999999
   116   1      7.8719999999999999      2.6239999999999997                  15.744
   117   1      5.2480000000000002                       0      20.992000000000001
   118   1      5.2480000000000002      2.6239999999999997                  23.616
   119   1      7.8719999999999999                       0                  23.616
   120   1      7.8719999999999999      2.6239999999999997      20.992000000000001
   121   1      5.2480000000000002      5.2480000000000002                       0
   122   1      5.2480000000000002      7.8719999999999999      2.6239999999999997
   123   1      7.8719999999999999      5.2480000000000002      2.6239999999999997
   124   1      7.8719999999999999      7.8719999999999999                       0
   125   1      5.2480000000000002      5.2480000000000002      5.2480000000000002
   126   1      5.2480000000000002      7.8719999999999999      7.8719999999999999
   127   1      7.8719999999999999      5.2480000000000002      7.8719999999999999
   128   1      7.8719999999999999      7.8719999999999999      5.2480000000000002
   129   1      5.2480000000000002      5.2480000000000002                  10.496
   130   1      5.2480000000000002      7.8719999999999999      13.120000000000001
   131   1      7.8719999999999999      5.2480000000000002      13.120000000000001
   132   1      7.8719999999999999      7.8719999999999999                  10.496
   133   1      5.2480000000000002      5.2480000000000002                  15.744
   134   1      5.2480000000000002      7.8719999999999999      18.367999999999999
   135   1      7.8719999999999999      5.2480000000000002      18.367999999999999
   136   1      7.8719999999999999      7.8719999999999999                  15.744
   137   1      5.2480000000000002      5.2480000000000002      20.992000000000001
   138   1      5.2480000000000002      7.8719999999999999                  23.616
   139   1      7.8719999999999999      5.2480000000000002                  23.616
   140   1      7.8719999999999999      7.8719999999999999      20.992000000000001
   141   1      5.2480000000000002                  10.496                       0
   142   1      5.2480000000000002      13.120000000000001      2.6239999999999997
   143   1      7.8719999999999999                  10.496      2.6239999999999997
   144   1      7.8719999999999999      13.120000000000001                       0
   145   1      5.2480000000000002                  10.496      5.2480000000000002
   146   1      5.2480000000000002      13.120000000000001      7.8719999999999999
   147   1      7.8719999999999999                  10.496      7.8719999999999999
   148   1      7.8719999999999999      13.120000000000001      5.2480000000000002
   149   1      5.2480000000000002                  10.496                  10.496
   150   1      5.2480000000000002      13.120000000000001      13.120000000000001
   151   1      7.8719999999999999                  10.496      13.120000000000001
   152   1      7.8719999999999999      13.120000000000001                  10.496
   153   1      5.2480000000000002                  10.496                  15.744
   154   1      5.2480000000000002      13.120000000000001      18.367999999999999
   155   1      7.8719999999999999                  10.496      18.367999999999999
   156   1      7.8719999999999999      13.120000000000001                  15.744
   157   1      5.2480000000000002                  10.496      20.992000000000001
   158   1      5.2480000000000002      13.120000000000001                  23.616
   159   1      7.8719999999999999                  10.496                  23.616
   160   1      7.8719999999999999      13.120000000000001      20.992000000000001
   161   1      5.2480000000000002                  15.744                       0
   162   1      5.2480000000000002      18.367999999999999      2.6239999999999997
   163   1      7.8719999999999999                  15.744      2.6239999999999997
   164   1      7.8719999999999999      18.367999999999999                       0
   165   1      5.2480000000000002                  15.744      5.2480000000000002
   166   1      5.2480000000000002      18.367999999999999      7.8719999999999999
   167   1      7.8719999999999999                  15.744      7.8719999999999999
   168   1      7.8719999999999999      18.367999999999999      5.2480000000000002
   169   1      5.2480000000000002                  15.744                  10.496
   170   1      5.2480000000000002      18.367999999999999      13.120000000000001
   171   1      7.8719999999999999                  15.744      13.120000000000001
   172   1      7.8719999999999999      18.367999999999999                  10.496
   173   1      5.2480000000000002                  15.744                  15.744
   174   1      5.2480000000000002      18.367999999999999      18.367999999999999
   175   1      7.8719999999999999                  15.744      18.367999999999999
   176   1      7.8719999999999999      18.367999999999999                  15.744
   177   1      5.2480000000000002                  15.744      20.992000000000001
   178   1      5.2480000000000002      18.367999999999999                  23.616
   179   1      7.8719999999999999                  15.744                  23.616
   180   1      7.8719999999999999      18.367999999999999      20.992000000000001
   181   1      5.2480000000000002      20.992000000000001                       0
   182   1      5.2480000000000002                  23.616      2.6239999999999997
   183   1      7.8719999999999999      20.992000000000001      2.6239999999999997
   184   1      7.8719999999999999                  23.616                       0
   185   1      5.2480000000000002      20.992000000000001      5.2480000000000002
   186   1      5.2480000000000002                  23.616      7.8719999999999999
   187   1      7.8719999999999999      20.992000000000001      7.8719999999999999
   188   1      7.8719999999999999                  23.616      5.2480000000000002
   189   1      5.2480000000000002      20.992000000000001                  10.496
   190   1      5.2480000000000002                  23.616      13.120000000000001
   191   1      7.8719999999999999      20.992000000000001      13.120000000000001
   192   1      7.8719999999999999                  23.616                  10.496
   193   1      5.2480000000000002      20.992000000000001                  15.744
   194   1      5.2480000000000002                  23.616      18.367999999999999
   195   1      7.8719999999999999      20.992000000000001      18.367999999999999
   196   1      7.8719999999999999                  23.616                  15.744
   197   1      5.2480000000000002      20.992000000000001      20.992000000000001
   198   1      5.2480000000000002                  23.616                  23.616
   199   1      7.8719999999999999      20.992000000000001                  23.616
   200   1      7.8719999999999999                  23.616      20.992000000000001
   201   1                  10.496                       0                       0
   202   1                  10.496      2.6239999999999997      2.6239999999999997
   203   1      13.120000000000001                       0      2.6239999999999997
   204   1      13.120000000000001      2.6239999999999997                       0
   205   1                  10.496                       0      5.2480000000000002
   206   1                  10.496      2.6239999999999997      7.8719999999999999
   207   1      13.120000000000001                       0      7.8719999999999999
   208   1      13.120000000000001      2.6239999999999997      5.2480000000000002
   209   1                  10.496                       0                  10.496
   210   1                  10.496      2.6239999999999997      13.120000000000001
   211   1      13.120000000000001                       0      13.120000000000001
   212   1      13.120000000000001      2.6239999999999997                  10.496
   213   1                  10.496                       0                  15.744
   214   1                  10.496      2.6239999999999997      18.367999999999999
   215   1      13.120000000000001                       0      18.367999999999999
   216   1      13.120000000000001      2.6239999999999997                  15.744
   217   1                  10.496                       0      20.992000000000001
   218   1                  10.496      2.6239999999999997                  23.616
   219   1      13.120000000000001                       0                  23.616
   220   1      13.120000000000001      2.6239999999999997      20.992000000000001
   221   1                  10.496      5.2480000000000002                       0
   222   1                  10.496      7.8719999999999999      2.6239999999999997
   223   1      13.120000000000001      5.2480000000000002      2.6239999999999997
   224   1      13.120000000000001      7.8719999999999999                       0
   225   1                  10.496      5.2480000000000002      5.2480000000000002
   226   1                  10.496      7.8719999999999999      7.8719999999999999
   227   1      13.120000000000001      5.2480000000000002      7.8719999999999999
   228   1      13.120000000000001      7.8719999999999999      5.2480000000000002
   229   1                  10.496      5.2480000000000002                  10.496
   230   1                  10.496      7.8719999999999999      13.120000000000001
   231   1      13.120000000000001      5.2480000000000002      13.120000000000001
   232   1      13.120000000000001      7.8719999999999999                  10.496
   233   1                  10.496      5.2480000000000002                  15.744
   234   1                  10.496      7.8719999999999999      18.367999999999999
   235   1      13.120000000000001      5.2480000000000002      18.367999999999999
   236   1      13.120000000000001      7.8719999999999999                  15.744
   237   1                  10.496      5.2480000000000002      20.992000000000001
   238   1                  10.496      7.8719999999999999                  23.616
   239   1      13.120000000000001      5.2480000000000002                  23.616
   240   1      13.120000000000001      7.8719999999999999      20.992000000000001
   241   1                  10.496                  10.496                       0
   242   1                  10.496      13.120000000000001      2.6239999999999997
   243   1      13.120000000000001                  10.496      2.6239999999999997
   244   1      13.120000000000001      13.120000000000001                       0
   245   1                  10.496                  10.496      5.2480000000000002
   246   1                  10.496      13.120000000000001      7.8719999999999999
   247   1      13.120000000000001                  10.496      7.8719999999999999
   248   1      13.120000000000001      13.120000000000001      5.2480000000000002
   249   1                  10.496                  10.496                  10.496
   250   1                  10.496      13.120000000000001      13.120000000000001
   251   1      13.120000000000001                  10.496      13.120000000000001
   252   1      13.120000000000001      13.120000000000001                  10.496
   253   1                  10.496                  10.496                  15.744
   254   1                  10.496      13.120000000000001      18.367999999999999
   255   1      13.120000000000001                  10.496      18.367999999999999
   256   1      13.120000000000001      13.120000000000001                  15.744
   257   1                  10.496                  10.496      20.992000000000001
   258   1                  10.496      13.120000000000001                  23.616
   259   1      13.120000000000001                  10.496                  23.616
   260   1      13.120000000000001      13.120000000000001      20.992000000000001
   261   1                  10.496                  15.744                       0
   262   1                  10.496      18.367999999999999      2.6239999999999997
   263   1      13.120000000000001                  15.744      2.6239999999999997
   264   1      13.120000000000001      18.367999999999999                       0
   265   1                  10.496                  15.744      5.2480000000000002
   266   1                  10.496      18.367999999999999      7.8719999999999999
   267   1      13.120000000000001                  15.744      7.8719999999999999
   268   1      13.120000000000001      18.367999999999999      5.2480000000000002
   269   1                  10.496                  15.744                  10.496
   270   1                  10.496      18.367999999999999      13.120000000000001
   271   1      13.120000000000001                  15.744      13.120000000000001
   272   1      13.120000000000001      18.367999999999999                  10.496
   273   1                  10.496                  15.744                  15.744
   274   1                  10.496      18.367999999999999      18.367999999999999
   275   1      13.120000000000001                  15.744      18.367999999999999
   276   1      13.120000000000001      18.367999999999999                  15.744
   277   1                  10.496                  15.744      20.992000000000001
   278   1                  10.496      18.367999999999999                  23.616
   279   1      13.120000000000001                  15.744                  23.616
   280   1      13.120000000000001      18.367999999999999      20.992000000000001
   281   1                  10.496      20.992000000000001                       0
   282   1                  10.496                  23.616      2.6239999999999997
   283   1      13.120000000000001      20.992000000000001      2.6239999999999997
   284   1      13.120000000000001                  23.616                       0
   285   1                  10.496      20.992000000000001      5.2480000000000002
   286   1                  10.496                  23.616      7.8719999999999999
   287   1      13.120000000000001      20.992000000000001      7.8719999999999999
   288   1      13.120000000000001                  23.616      5.2480000000000002
   289   1                  10.496      20.992000000000001                  10.496
   290   1                  10.496                  23.616      13.120000000000001
   291   1      13.120000000000001      20.992000000000001      13.120000000000001
   292   1      13.120000000000001                  23.616                  10.496
   293   1                  10.496      20.992000000000001                  15.744
   294   1                  10.496                  23.616      18.367999999999999
   295   1      13.120000000000001      20.992000000000001      18.367999999999999
   296   1      13.120000000000001                  23.616                  15.744
   297   1                  10.496      20.992000000000001      20.992000000000001
   298   1                  10.496                  23.616                  23.616
   299   1      13.120000000000001      20.992000000000001                  23.616
   300   1      13.120000000000001                  23.616      20.992000000000001
   301   1                  15.744                       0                       0
   302   1                  15.744      2.6239999999999997      2.6239999999999997
   303   1      18.367999999999999                       0      2.6239999999999997
   304   1      18.367999999999999      2.6239999999999997                       0
   305   1                  15.744                       0      5.2480000000000002
   306   1                  15.744      2.6239999999999997      7.8719999999999999
   307   1      18.367999999999999                       0      7.8719999999999999
   308   1      18.367999999999999      2.6239999999999997      5.2480000000000002
   309   1                  15.744                       0                  10.496
   310   1                  15.744      2.6239999999999997      13.120000000000001
   311   1      18.367999999999999                       0      13.120000000000001
   312   1      18.367999999999999      2.6239999999999997                  10.496
   313   1                  15.744                       0                  15.744
   314   1                  15.744      2.6239999999999997      18.367999999999999
   315   1      18.367999999999999                       0      18.367999999999999
   316   1      18.367999999999999      2.6239999999999997                  15.744
   317   1                  15.744                       0      20.992000000000001
   318   1                  15.744      2.6239999999999997                  23.616
   319   1      18.367999999999999                       0                  23.616
   320   1      18.367999999999999      2.6239999999999997      20.992000000000001
   321   1                  15.744      5.2480000000000002                       0
   322   1                  15.744      7.8719999999999999      2.6239999999999997
   323   1      18.367999999999999      5.2480000000000002      2.6239999999999997
   324   1      18.367999999999999      7.8719999999999999                       0
   325   1                  15.744      5.2480000000000002      5.2480000000000002
   326   1                  15.744      7.8719999999999999      7.8719999999999999
   327   1      18.367999999999999      5.2480000000000002      7.8719999999999999
   328   1      18.367999999999999      7.8719999999999999      5.2480000000000002
   329   1                  15.744      5.2480000000000002                  10.496
   330   1                  15.744      7.8719999999999999      13.120000000000001
   331   1      18.367999999999999      5.2480000000000002      13.120000000000001
   332   1      18.367999999999999      7.8719999999999999                  10.496
   333   1                  15.744      5.2480000000000002                  15.744
   334   1                  15.744      7.8719999999999999      18.367999999999999
   335   1      18.367999999999999      5.2480000000000002      18.367999999999999
   336   1      18.367999999999999      7.8719999999999999                  15.744
   337   1                  15.744      5.2480000000000002      20.992000000000001
   338   1                  15.744      7.8719999999999999                  23.616
   339   1      18.367999999999999      5.2480000000000002                  23.616
   340   1      18.367999999999999      7.8719999999999999      20.992000000000001
   341   1                  15.744                  10.496                       0
   342   1                  15.744      13.120000000000001      2.6239999999999997
   343   1      18.367999999999999                  10.496      2.6239999999999997
   344   1      18.367999999999999      13.120000000000001                       0
   345   1                  15.744                  10.496      5.2480000000000002
   346   1                  15.744      13.120000000000001      7.8719999999999999
   347   1      18.367999999999999                  10.496      7.8719999999999999
   348   1      18.367999999999999      13.120000000000001      5.2480000000000002
   349   1                  15.744                  10.496                  10.496
   350   1                  15.744      13.120000000000001      13.120000000000001
   351   1      18.367999999999999                  10.496      13.120000000000001
   352   1      18.367999999999999      13.120000000000001                  10.496
   353   1                  15.744                  10.496                  15.744
   354   1                  15.744      13.120000000000001      18.367999999999999
   355   1      18.367999999999999                  10.496      18.367999999999999
   356   1      18.367999999999999      13.120000000000001                  15.744
   357   1                  15.744                  10.496      20.992000000000001
   358   1                  15.744      13.120000000000001                  23.616