(written by ASE)

4 atoms
1 atom types

0.0      5.2480000000000002  xlo xhi
0.0      5.2480000000000002  ylo yhi
0.0      5.2480000000000002  zlo zhi

Masses

     1      39.947999989723606 # Ar

Atoms # atomic

     1   1                       0                       0                       0
     2   1                       0      2.6239999999999997      2.6239999999999997
     3   1      2.6239999999999997                       0      2.6239999999999997
     4   1      2.6239999999999997      2.6239999999999997                       0
