(written by ASE)

432 atoms
1 atom types

0.0      28.007099999999998  xlo xhi
0.0      7.6460999999999988  ylo yhi
0.0      12.542529549983101  zlo zhi
                      0      1.3641938050735796                       0  xy xz yz

Masses

     1      12.010999996910238 # C

Atoms # atomic

     1   1      9.2056777871998499                       0      3.6623450039466068
     2   1     0.58475348115801218                       0     0.51849817938109499
     3   1      4.5378277871998502      1.2743499999999999      3.6623450039466068
     4   1      5.2526034811580118      1.2743499999999999      0.5184981793810951
     5   1      4.4273092055378864                       0       2.741979578856554
     6   1      5.3631220628199747                       0      1.4388636044711478
     7   1       9.095159205537886      1.2743499999999999       2.741979578856554
     8   1     0.69527206281997511      1.2743499999999999      1.4388636044711478
     9   1      7.3708609462545498                       0     0.24908899272436771
    10   1      2.4195703221033114                       0      3.9317541906033342
    11   1      2.7030109462545502      1.2743499999999999     0.24908899272436763
    12   1       7.087420322103311      1.2743499999999999      3.9317541906033342
    13   1      2.8172538848352531                       0      2.4335018341383128
    14   1       6.973177383522609                       0      1.7473413491893892
    15   1      7.4851038848352527      1.2743499999999999      2.4335018341383128
    16   1      2.3053273835226094      1.2743499999999999       1.747341349189389
    17   1      9.6604090555577091                       0      7.8431881872743068
    18   1      1.0394847495158719                       0       4.699341362708795
    19   1      4.9925590555577104      1.2743499999999999      7.8431881872743068
    20   1      5.7073347495158719      1.2743499999999999       4.699341362708795
    21   1      4.8820404738957466                       0      6.9228227621842535
    22   1      5.8178533311778349                       0      5.6197067877988474
    23   1      9.5498904738957453      1.2743499999999999      6.9228227621842535
    24   1      1.1500033311778348      1.2743499999999999      5.6197067877988474
    25   1      7.8255922146124099                       0       4.429932176052068
    26   1      2.8743015904611711                       0      8.1125973739310346
    27   1      3.1577422146124099      1.2743499999999999       4.429932176052068
    28   1      7.5421515904611711      1.2743499999999999      8.1125973739310346
    29   1      3.2719851531931128                       0      6.6143450174660128
    30   1      7.4279086518804691                       0       5.928184532517089
    31   1      7.9398351531931128      1.2743499999999999      6.6143450174660128
    32   1      2.7600586518804691      1.2743499999999999       5.928184532517089
    33   1       10.11514032391557                       0      12.024031370602007
    34   1      1.4942160178737318                       0      8.8801845460364959
    35   1      5.4472903239155697      1.2743499999999999      12.024031370602007
    36   1      6.1620660178737312      1.2743499999999999      8.8801845460364959
    37   1      5.3367717422536058                       0      11.103665945511954
    38   1      6.2725845995356941                       0      9.8005499711265482
    39   1      10.004621742253606      1.2743499999999999      11.103665945511954
    40   1      1.6047345995356948      1.2743499999999999      9.8005499711265482
    41   1      8.2803234829702692                       0      8.6107753593797671
    42   1      3.3290328588190308                       0      12.293440557258734
    43   1      3.6124734829702696      1.2743499999999999      8.6107753593797671
    44   1      7.9968828588190304      1.2743499999999999      12.293440557258734
    45   1      3.7267164215509725                       0      10.795188200793714
    46   1      7.8826399202383284                       0      10.109027715844789
    47   1       8.394566421550973      1.2743499999999999      10.795188200793714
    48   1      3.2147899202383288      1.2743499999999999      10.109027715844789
    49   1      9.2056777871998499      2.5486999999999997      3.6623450039466068
    50   1     0.58475348115801218      2.5486999999999997     0.51849817938109499
    51   1      4.5378277871998502      3.8230499999999994      3.6623450039466068
    52   1      5.2526034811580118      3.8230499999999994      0.5184981793810951
    53   1      4.4273092055378864      2.5486999999999997       2.741979578856554
    54   1      5.3631220628199747      2.5486999999999997      1.4388636044711478
    55   1       9.095159205537886      3.8230499999999994       2.741979578856554
    56   1     0.69527206281997511      3.8230499999999994      1.4388636044711478
    57   1      7.3708609462545498      2.5486999999999997     0.24908899272436771
    58   1      2.4195703221033114      2.5486999999999997      3.9317541906033342
    59   1      2.7030109462545502      3.8230499999999994     0.24908899272436763
    60   1       7.087420322103311      3.8230499999999994      3.9317541906033342
    61   1      2.8172538848352531      2.5486999999999997      2.4335018341383128
    62   1       6.973177383522609      2.5486999999999997      1.7473413491893892
    63   1      7.4851038848352527      3.8230499999999994      2.4335018341383128
    64   1      2.3053273835226094      3.8230499999999994       1.747341349189389
    65   1      9.6604090555577091      2.5486999999999997      7.8431881872743068
    66   1      1.0394847495158719      2.5486999999999997       4.699341362708795
    67   1      4.9925590555577104      3.8230499999999994      7.8431881872743068
    68   1      5.7073347495158719      3.8230499999999994       4.699341362708795
    69   1      4.8820404738957466      2.5486999999999997      6.9228227621842535
    70   1      5.8178533311778349      2.5486999999999997      5.6197067877988474
    71   1      9.5498904738957453      3.8230499999999994      6.9228227621842535
    72   1      1.1500033311778348      3.8230499999999994      5.6197067877988474
    73   1      7.8255922146124099      2.5486999999999997       4.429932176052068
    74   1      2.8743015904611711      2.5486999999999997      8.1125973739310346
    75   1      3.1577422146124099      3.8230499999999994       4.429932176052068
    76   1      7.5421515904611711      3.8230499999999994      8.1125973739310346
    77   1      3.2719851531931128      2.5486999999999997      6.6143450174660128
    78   1      7.4279086518804691      2.5486999999999997       5.928184532517089
    79   1      7.9398351531931128      3.8230499999999994      6.6143450174660128
    80   1      2.7600586518804691      3.8230499999999994       5.928184532517089
    81   1       10.11514032391557      2.5486999999999997      12.024031370602007
    82   1      1.4942160178737318      2.5486999999999997      8.8801845460364959
    83   1      5.4472903239155697      3.8230499999999994      12.024031370602007
    84   1      6.1620660178737312      3.8230499999999994      8.8801845460364959
    85   1      5.3367717422536058      2.5486999999999997      11.103665945511954
    86   1      6.2725845995356941      2.5486999999999997      9.8005499711265482
    87   1      10.004621742253606      3.8230499999999994      11.103665945511954
    88   1      1.6047345995356948      3.8230499999999994      9.8005499711265482
    89   1      8.2803234829702692      2.5486999999999997      8.6107753593797671
    90   1      3.3290328588190308      2.5486999999999997      12.293440557258734
    91   1      3.6124734829702696      3.8230499999999994      8.6107753593797671
    92   1      7.9968828588190304      3.8230499999999994      12.293440557258734
    93   1      3.7267164215509725      2.5486999999999997      10.795188200793714
    94   1      7.8826399202383284      2.5486999999999997      10.109027715844789
    95   1       8.394566421550973      3.8230499999999994      10.795188200793714
    96   1      3.2147899202383288      3.8230499999999994      10.109027715844789
    97   1      9.2056777871998499      5.0973999999999995      3.6623450039466068
    98   1     0.58475348115801218      5.0973999999999995     0.51849817938109499
    99   1      4.5378277871998502      6.3717499999999996      3.6623450039466068
   100   1      5.2526034811580118      6.3717499999999996      0.5184981793810951
   101   1      4.4273092055378864      5.0973999999999995       2.741979578856554
   102   1      5.3631220628199747      5.0973999999999995      1.4388636044711478
   103   1       9.095159205537886      6.3717499999999996       2.741979578856554
   104   1     0.69527206281997511      6.3717499999999996      1.4388636044711478
   105   1      7.3708609462545498      5.0973999999999995     0.24908899272436771
   106   1      2.4195703221033114      5.0973999999999995      3.9317541906033342
   107   1      2.7030109462545502      6.3717499999999996     0.24908899272436763
   108   1       7.087420322103311      6.3717499999999996      3.9317541906033342
   109   1      2.8172538848352531      5.0973999999999995      2.4335018341383128
   110   1       6.973177383522609      5.0973999999999995      1.7473413491893892
   111   1      7.4851038848352527      6.3717499999999996      2.4335018341383128
   112   1      2.3053273835226094      6.3717499999999996       1.747341349189389
   113   1      9.6604090555577091      5.0973999999999995      7.8431881872743068
   114   1      1.0394847495158719      5.0973999999999995       4.699341362708795
   115   1      4.9925590555577104      6.3717499999999996      7.8431881872743068
   116   1      5.7073347495158719      6.3717499999999996       4.699341362708795
   117   1      4.8820404738957466      5.0973999999999995      6.9228227621842535
   118   1      5.8178533311778349      5.0973999999999995      5.6197067877988474
   119   1      9.5498904738957453      6.3717499999999996      6.9228227621842535
   120   1      1.1500033311778348      6.3717499999999996      5.6197067877988474
   121   1      7.8255922146124099      5.0973999999999995       4.429932176052068
   122   1      2.8743015904611711      5.0973999999999995      8.1125973739310346
   123   1      3.1577422146124099      6.3717499999999996       4.429932176052068
   124   1      7.5421515904611711      6.3717499999999996      8.1125973739310346
   125   1      3.2719851531931128      5.0973999999999995      6.6143450174660128
   126   1      7.4279086518804691      5.0973999999999995       5.928184532517089
   127   1      7.9398351531931128      6.3717499999999996      6.6143450174660128
   128   1      2.7600586518804691      6.3717499999999996       5.928184532517089
   129   1       10.11514032391557      5.0973999999999995      12.024031370602007
   130   1      1.4942160178737318      5.0973999999999995      8.8801845460364959
   131   1      5.4472903239155697      6.3717499999999996      12.024031370602007
   132   1      6.1620660178737312      6.3717499999999996      8.8801845460364959
   133   1      5.3367717422536058      5.0973999999999995      11.103665945511954
   134   1      6.2725845995356941      5.0973999999999995      9.8005499711265482
   135   1      10.004621742253606      6.3717499999999996      11.103665945511954
   136   1      1.6047345995356948      6.3717499999999996      9.8005499711265482
   137   1      8.2803234829702692      5.0973999999999995      8.6107753593797671
   138   1      3.3290328588190308      5.0973999999999995      12.293440557258734
   139   1      3.6124734829702696      6.3717499999999996      8.6107753593797671
   140   1      7.9968828588190304      6.3717499999999996      12.293440557258734
   141   1      3.7267164215509725      5.0973999999999995      10.795188200793714
   142   1      7.8826399202383284      5.0973999999999995      10.109027715844789
   143   1       8.394566421550973      6.3717499999999996      10.795188200793714
   144   1      3.2147899202383288      6.3717499999999996      10.109027715844789
   145   1      18.541377787199849                       0      3.6623450039466072
   146   1      9.9204534811580114                       0     0.51849817938109521
   147   1      13.873527787199849      1.2743499999999999      3.6623450039466072
   148   1      14.588303481158011      1.2743499999999999     0.51849817938109521
   149   1      13.763009205537886                       0      2.7419795788565544
   150   1      14.698822062819975                       0       1.438863604471148
   151   1      18.430859205537885      1.2743499999999999      2.7419795788565544
   152   1      10.030972062819973      1.2743499999999999       1.438863604471148
   153   1      16.706560946254548                       0     0.24908899272436788
   154   1      11.755270322103311                       0      3.9317541906033342
   155   1       12.03871094625455      1.2743499999999999      0.2490889927243678
   156   1      16.423120322103308      1.2743499999999999      3.9317541906033346
   157   1      12.152953884835252                       0      2.4335018341383128
   158   1      16.308877383522606                       0      1.7473413491893892
   159   1       16.82080388483525      1.2743499999999999      2.4335018341383132
   160   1      11.641027383522609      1.2743499999999999      1.7473413491893892
   161   1       18.99610905555771                       0      7.8431881872743068
   162   1      10.375184749515871                       0       4.699341362708795
   163   1      14.328259055557709      1.2743499999999999      7.8431881872743068
   164   1       15.04303474951587      1.2743499999999999       4.699341362708795
   165   1      14.217740473895745                       0      6.9228227621842535
   166   1      15.153553331177832                       0      5.6197067877988474
   167   1      18.885590473895746      1.2743499999999999      6.9228227621842535
   168   1      10.485703331177834      1.2743499999999999      5.6197067877988474
   169   1      17.161292214612409                       0       4.429932176052068
   170   1       12.21000159046117                       0      8.1125973739310346
   171   1      12.493442214612408      1.2743499999999999       4.429932176052068
   172   1      16.877851590461169      1.2743499999999999      8.1125973739310346
   173   1      12.607685153193112                       0      6.6143450174660128
   174   1      16.763608651880467                       0       5.928184532517089
   175   1      17.275535153193111      1.2743499999999999      6.6143450174660128
   176   1      12.095758651880468      1.2743499999999999       5.928184532517089
   177   1      19.450840323915571                       0      12.024031370602007
   178   1      10.829916017873732                       0      8.8801845460364959
   179   1       14.78299032391557      1.2743499999999999      12.024031370602007
   180   1      15.497766017873731      1.2743499999999999      8.8801845460364959
   181   1      14.672471742253606                       0      11.103665945511954
   182   1      15.608284599535693                       0      9.8005499711265482
   183   1      19.340321742253607      1.2743499999999999      11.103665945511954
   184   1      10.940434599535696      1.2743499999999999      9.8005499711265482
   185   1       17.61602348297027                       0      8.6107753593797671
   186   1      12.664732858819031                       0      12.293440557258734
   187   1      12.948173482970269      1.2743499999999999      8.6107753593797671
   188   1       17.33258285881903      1.2743499999999999      12.293440557258734
   189   1      13.062416421550973                       0      10.795188200793714
   190   1      17.218339920238328                       0      10.109027715844789
   191   1      17.730266421550972      1.2743499999999999      10.795188200793714
   192   1      12.550489920238329      1.2743499999999999      10.109027715844789
   193   1      18.541377787199849      2.5486999999999997      3.6623450039466072
   194   1      9.9204534811580114      2.5486999999999997     0.51849817938109521
   195   1      13.873527787199849      3.8230499999999994      3.6623450039466072
   196   1      14.588303481158011      3.8230499999999994     0.51849817938109521
   197   1      13.763009205537886      2.5486999999999997      2.7419795788565544
   198   1      14.698822062819975      2.5486999999999997       1.438863604471148
   199   1      18.430859205537885      3.8230499999999994      2.7419795788565544
   200   1      10.030972062819973      3.8230499999999994       1.438863604471148
   201   1      16.706560946254548      2.5486999999999997     0.24908899272436788
   202   1      11.755270322103311      2.5486999999999997      3.9317541906033342
   203   1       12.03871094625455      3.8230499999999994      0.2490889927243678
   204   1      16.423120322103308      3.8230499999999994      3.9317541906033346
   205   1      12.152953884835252      2.5486999999999997      2.4335018341383128
   206   1      16.308877383522606      2.5486999999999997      1.7473413491893892
   207   1       16.82080388483525      3.8230499999999994      2.4335018341383132
   208   1      11.641027383522609      3.8230499999999994      1.7473413491893892
   209   1       18.99610905555771      2.5486999999999997      7.8431881872743068
   210   1      10.375184749515871      2.5486999999999997       4.699341362708795
   211   1      14.328259055557709      3.8230499999999994      7.8431881872743068
   212   1       15.04303474951587      3.8230499999999994       4.699341362708795
   213   1      14.217740473895745      2.5486999999999997      6.9228227621842535
   214   1      15.153553331177832      2.5486999999999997      5.6197067877988474
   215   1      18.885590473895746      3.8230499999999994      6.9228227621842535
   216   1      10.485703331177834      3.8230499999999994      5.6197067877988474
   217   1      17.161292214612409      2.5486999999999997       4.429932176052068
   218   1       12.21000159046117      2.5486999999999997      8.1125973739310346
   219   1      12.493442214612408      3.8230499999999994       4.429932176052068
   220   1      16.877851590461169      3.8230499999999994      8.1125973739310346
   221   1      12.607685153193112      2.5486999999999997      6.6143450174660128
   222   1      16.763608651880467      2.5486999999999997       5.928184532517089
   223   1      17.275535153193111      3.8230499999999994      6.6143450174660128
   224   1      12.095758651880468      3.8230499999999994       5.928184532517089
   225   1      19.450840323915571      2.5486999999999997      12.024031370602007
   226   1      10.829916017873732      2.5486999999999997      8.8801845460364959
   227   1       14.78299032391557      3.8230499999999994      12.024031370602007
   228   1      15.497766017873731      3.8230499999999994      8.8801845460364959
   229   1      14.672471742253606      2.5486999999999997      11.103665945511954
   230   1      15.608284599535693      2.5486999999999997      9.8005499711265482
   231   1      19.340321742253607      3.8230499999999994      11.103665945511954
   232   1      10.940434599535696      3.8230499999999994      9.8005499711265482
   233   1       17.61602348297027      2.5486999999999997      8.6107753593797671
   234   1      12.664732858819031      2.5486999999999997      12.293440557258734
   235   1      12.948173482970269      3.8230499999999994      8.6107753593797671
   236   1       17.33258285881903      3.8230499999999994      12.293440557258734
   237   1      13.062416421550973      2.5486999999999997      10.795188200793714
   238   1      17.218339920238328      2.5486999999999997      10.109027715844789
   239   1      17.730266421550972      3.8230499999999994      10.795188200793714
   240   1      12.550489920238329      3.8230499999999994      10.109027715844789
   241   1      18.541377787199849      5.0973999999999995      3.6623450039466072
   242   1      9.9204534811580114      5.0973999999999995     0.51849817938109521
   243   1      13.873527787199849      6.3717499999999996      3.6623450039466072
   244   1      14.588303481158011      6.3717499999999996     0.51849817938109521
   245   1      13.763009205537886      5.0973999999999995      2.7419795788565544
   246   1      14.698822062819975      5.0973999999999995       1.438863604471148
   247   1      18.430859205537885      6.3717499999999996      2.7419795788565544
   248   1      10.030972062819973      6.3717499999999996       1.438863604471148
   249   1      16.706560946254548      5.0973999999999995     0.24908899272436788
   250   1      11.755270322103311      5.0973999999999995      3.9317541906033342
   251   1       12.03871094625455      6.3717499999999996      0.2490889927243678
   252   1      16.423120322103308      6.3717499999999996      3.9317541906033346
   253   1      12.152953884835252      5.0973999999999995      2.4335018341383128
   254   1      16.308877383522606      5.0973999999999995      1.7473413491893892
   255   1       16.82080388483525      6.3717499999999996      2.4335018341383132
   256   1      11.641027383522609      6.3717499999999996      1.7473413491893892
   257   1       18.99610905555771      5.0973999999999995      7.8431881872743068
   258   1      10.375184749515871      5.0973999999999995       4.699341362708795
   259   1      14.328259055557709      6.3717499999999996      7.8431881872743068
   260   1       15.04303474951587      6.3717499999999996       4.699341362708795
   261   1      14.217740473895745      5.0973999999999995      6.9228227621842535
   262   1      15.153553331177832      5.0973999999999995      5.6197067877988474
   263   1      18.885590473895746      6.3717499999999996      6.9228227621842535
   264   1      10.485703331177834      6.3717499999999996      5.6197067877988474
   265   1      17.161292214612409      5.0973999999999995       4.429932176052068
   266   1       12.21000159046117      5.0973999999999995      8.1125973739310346
   267   1      12.493442214612408      6.3717499999999996       4.429932176052068
   268   1      16.877851590461169      6.3717499999999996      8.1125973739310346
   269   1      12.607685153193112      5.0973999999999995      6.6143450174660128
   270   1      16.763608651880467      5.0973999999999995       5.928184532517089
   271   1      17.275535153193111      6.3717499999999996      6.6143450174660128
   272   1      12.095758651880468      6.3717499999999996       5.928184532517089
   273   1      19.450840323915571      5.0973999999999995      12.024031370602007
   274   1      10.829916017873732      5.0973999999999995      8.8801845460364959
   275   1       14.78299032391557      6.3717499999999996      12.024031370602007
   276   1      15.497766017873731      6.3717499999999996      8.8801845460364959
   277   1      14.672471742253606      5.0973999999999995      11.103665945511954
   278   1      15.608284599535693      5.0973999999999995      9.8005499711265482
   279   1      19.340321742253607      6.3717499999999996      11.103665945511954
   280   1      10.940434599535696      6.3717499999999996      9.8005499711265482
   281   1       17.61602348297027      5.0973999999999995      8.6107753593797671
   282   1      12.664732858819031      5.0973999999999995      12.293440557258734
   283   1      12.948173482970269      6.3717499999999996      8.6107753593797671
   284   1       17.33258285881903      6.3717499999999996      12.293440557258734
   285   1      13.062416421550973      5.0973999999999995      10.795188200793714
   286   1      17.218339920238328      5.0973999999999995      10.109027715844789
   287   1      17.730266421550972      6.3717499999999996      10.795188200793714
   288   1      12.550489920238329      6.3717499999999996      10.109027715844789
   289   1      27.877077787199848                       0      3.6623450039466072
   290   1      19.256153481158009                       0     0.51849817938109533
   291   1       23.20922778719985      1.2743499999999999      3.6623450039466072
   292   1       23.92400348115801      1.2743499999999999     0.51849817938109544
   293   1      23.098709205537887                       0      2.7419795788565544
   294   1      24.034522062819974                       0      1.4388636044711482
   295   1      27.766559205537884      1.2743499999999999      2.7419795788565544
   296   1      19.366672062819973      1.2743499999999999      1.4388636044711482
   297   1      26.042260946254547                       0     0.24908899272436805
   298   1       21.09097032210331                       0      3.9317541906033346
   299   1       21.37441094625455      1.2743499999999999     0.24908899272436796
   300   1      25.758820322103311      1.2743499999999999      3.9317541906033346
   301   1      21.488653884835252                       0      2.4335018341383132
   302   1      25.644577383522609                       0      1.7473413491893894
   303   1      26.156503884835253      1.2743499999999999      2.4335018341383132
   304   1      20.976727383522608      1.2743499999999999      1.7473413491893894
   305   1      28.331809055557709                       0      7.8431881872743077
   306   1       19.71088474951587                       0       4.699341362708795
   307   1      23.663959055557712      1.2743499999999999      7.8431881872743068
   308   1      24.378734749515871      1.2743499999999999       4.699341362708795
   309   1      23.553440473895748                       0      6.9228227621842535
   310   1      24.489253331177835                       0      5.6197067877988474
   311   1      28.221290473895746      1.2743499999999999      6.9228227621842544
   312   1      19.821403331177834      1.2743499999999999      5.6197067877988474
   313   1      26.496992214612408                       0      4.4299321760520689
   314   1      21.545701590461171                       0      8.1125973739310346
   315   1      21.829142214612411      1.2743499999999999       4.429932176052068
   316   1      26.213551590461172      1.2743499999999999      8.1125973739310346
   317   1      21.943385153193113                       0      6.6143450174660128
   318   1       26.09930865188047                       0      5.9281845325170899
   319   1      26.611235153193114      1.2743499999999999      6.6143450174660137
   320   1      21.431458651880469      1.2743499999999999       5.928184532517089
   321   1      28.786540323915567                       0      12.024031370602007
   322   1      20.165616017873731                       0      8.8801845460364959
   323   1      24.118690323915565      1.2743499999999999      12.024031370602007
   324   1      24.833466017873729      1.2743499999999999      8.8801845460364959
   325   1      24.008171742253602                       0      11.103665945511954
   326   1      24.943984599535693                       0      9.8005499711265482
   327   1      28.676021742253603      1.2743499999999999      11.103665945511954
   328   1      20.276134599535691      1.2743499999999999      9.8005499711265482
   329   1      26.951723482970266                       0      8.6107753593797671
   330   1      22.000432858819028                       0      12.293440557258734
   331   1      22.283873482970268      1.2743499999999999      8.6107753593797671
   332   1      26.668282858819026      1.2743499999999999      12.293440557258734
   333   1       22.39811642155097                       0      10.795188200793714
   334   1      26.554039920238324                       0      10.109027715844789
   335   1      27.065966421550968      1.2743499999999999      10.795188200793714
   336   1      21.886189920238326      1.2743499999999999      10.109027715844789
   337   1      27.877077787199848      2.5486999999999997      3.6623450039466072
   338   1      19.256153481158009      2.5486999999999997     0.51849817938109533
   339   1       23.20922778719985      3.8230499999999994      3.6623450039466072
   340   1       23.92400348115801      3.8230499999999994     0.51849817938109544
   341   1      23.098709205537887      2.5486999999999997      2.7419795788565544
   342   1      24.034522062819974      2.5486999999999997      1.4388636044711482
   343   1      27.766559205537884      3.8230499999999994      2.7419795788565544
   344   1      19.366672062819973      3.8230499999999994      1.4388636044711482
   345   1      26.042260946254547      2.5486999999999997     0.24908899272436805
   346   1       21.09097032210331      2.5486999999999997      3.9317541906033346
   347   1       21.37441094625455      3.8230499999999994     0.24908899272436796
   348   1      25.758820322103311      3.8230499999999994      3.9317541906033346
   349   1      21.488653884835252      2.5486999999999997      2.4335018341383132
   350   1      25.644577383522609      2.5486999999999997      1.7473413491893894
   351   1      26.156503884835253      3.8230499999999994      2.4335018341383132
   352   1      20.976727383522608      3.8230499999999994      1.7473413491893894
   353   1      28.331809055557709      2.5486999999999997      7.8431881872743077
   354   1       19.71088474951587      2.5486999999999997       4.699341362708795
   355   1      23.663959055557712      3.8230499999999994      7.8431881872743068
   356   1      24.378734749515871      3.8230499999999994       4.699341362708795
   357   1      23.553440473895748      2.5486999999999997      6.9228227621842535