(written by ASE)

4 atoms
1 atom types

0.0       4.013455022442054  xlo xhi
0.0      4.0401399694856552  ylo yhi
0.0      4.0660202791871098  zlo zhi

Atoms # atomic

     1   1      4.0208226018444524      4.0320029501892423      4.0458557806877158
     2   1      4.0205522306246264       2.012487414011122      1.9993670428374217
     3   1      2.0254174906876576      4.0325817142887637      1.9987799416748031
     4   1      2.0254102087762265      2.0121860936573452      4.0460335143090376
