(written by ASE)

4 atoms
1 atom types

0.0      4.0245257652662563  xlo xhi
0.0       4.008172738662644  ylo yhi
0.0      4.0632902747985788  zlo zhi

Atoms # atomic

     1   1      4.0267042154987784      4.0160039241806862      4.0431150198172912
     2   1      4.0278418550556285      2.0280737767639549      2.0008501041557549
     3   1      2.0198667129957886      4.0166739827941749      2.0005512603131677
     4   1      2.0200187152000133      2.0277479650712209      4.0438007050199785
