(written by ASE)

4 atoms
1 atom types

0.0       4.038804840526236  xlo xhi
0.0      4.0382990271421129  ylo yhi
0.0      4.0374288740284738  zlo zhi

Atoms # atomic

     1   1      4.0257079139541228      4.0258943178635462      4.0264355089774986
     2   1      4.0256080740510267      2.0067446980368135      2.0080963888812655
     3   1      2.0059469785632467      4.0259238878740256      2.0080630568664133
     4   1      2.0059538225215583      2.0068401275029357      4.0263759225547275
