(written by ASE)

4 atoms
1 atom types

0.0      4.0374259286291965  xlo xhi
0.0      4.0380119640923535  ylo yhi
0.0      4.0388201090559779  zlo zhi

Atoms # atomic

     1   1      4.0266416940564795      4.0260671787921352      4.0254526614500215
     2   1      4.0268327578581316       2.007107935973838      2.0059228992729632
     3   1      2.0079861714450757      4.0260443561368646       2.006023256007837
     4   1      2.0081524966882589       2.007235265237254      4.0254737714606739
