(written by ASE)

4 atoms
1 atom types

0.0      4.0378634532408508  xlo xhi
0.0      4.0381861541217621  ylo yhi
0.0      4.0383751632352354  zlo zhi

Atoms # atomic

     1   1      4.0264583887555192      4.0261030851659267      4.0254430664446481
     2   1      4.0263355425378853      2.0068711083085327      2.0066209218714843
     3   1      2.0074664090172059       4.026290575863106      2.0066456212131807
     4   1      2.0074177116729959      2.0069537138617264      4.0255606500735492
