(written by ASE)

4 atoms
1 atom types

0.0      4.0379858016898087  xlo xhi
0.0      4.0380940060256734  ylo yhi
0.0      4.0380298722255876  zlo zhi

Atoms # atomic

     1   1      4.0261304777528082      4.0258951025732257      4.0263735275816064
     2   1      4.0263639000531368      2.0071255057026369      2.0071217683419937
     3   1      2.0072834375380419      4.0257660336478036      2.0071204191515468
     4   1       2.007102533293045      2.0069700338763288      4.0264759680762809
