(written by ASE)

4 atoms
1 atom types

0.0      4.0377507852275913  xlo xhi
0.0       4.037918386697374  ylo yhi
0.0      4.0384989775582296  zlo zhi

Atoms # atomic

     1   1  -0.0051120563834235553      4.0278280573302601      4.0232576074288913
     2   1  -0.0052492143360848209      2.0073369853884322      2.0063187370250093
     3   1      2.0075944749311212      4.0276599741861761      2.0064722184310164
     4   1      2.0076864446570681      2.0073931942012786      4.0230717824534503
