(written by ASE)

4 atoms
1 atom types

0.0      4.0380615108078732  xlo xhi
0.0      4.0382574953097903  ylo yhi
0.0      4.0383090914373039  zlo zhi

Atoms # atomic

     1   1      4.0222379779420727      4.0245921952775969      4.0267233903237978
     2   1      4.0222253936292445      2.0066686009884283      2.0068195126698813
     3   1         2.0070362035897      4.0245543571591247      2.0066758888886556
     4   1      2.0071409332713555      2.0068476034780174      4.0267186205488832
