(written by ASE)

4 atoms
1 atom types

0.0      4.0487503566213379  xlo xhi
0.0      4.0448568866942498  ylo yhi
0.0      4.0665142985018177  zlo zhi

Atoms # atomic

     1   1      4.0395835120535581      4.0348893736873421       4.045309333733405
     2   1      4.0393300801083232      2.0096922832730835      1.9984512294592702
     3   1      2.0067795231264416      4.0337379132189382      1.9996221726403682
     4   1      2.0078239960059237      2.0101600431636029      4.0446094531259078
