(written by ASE)

4 atoms
1 atom types

0.0      4.0470320915611948  xlo xhi
0.0      4.0415019080517443  ylo yhi
0.0      4.0531642675787989  zlo zhi

Atoms # atomic

     1   1      4.0367133441193497      4.0346620226246683      4.0381655939291363
     2   1      4.0377593801882341      2.0111800267960516      2.0054600337666968
     3   1      2.0087204612541862      4.0340654031953571      2.0054422630858522
     4   1      2.0083656468288895       2.011831395366551      4.0381141961509064
