(written by ASE)

4 atoms
1 atom types

0.0       4.091256664249439  xlo xhi
0.0      4.0551632305921439  ylo yhi
0.0      4.0004900833688364  zlo zhi

Atoms # atomic

     1   1      4.0586221818602892       4.040975985621543       4.011932552951027
     2   1      4.0583973669258029        2.00496248201648      2.0319861122968672
     3   1      1.9864453538994993      4.0418398982636292      2.0317057548230029
     4   1      1.9867997184010635      2.0039881849997268        4.01210522698993
