(written by ASE)

4 atoms
1 atom types

0.0      4.0009714954902211  xlo xhi
0.0      3.9869860327315889  ylo yhi
0.0      4.0709283702720853  zlo zhi

Atoms # atomic

     1   1      4.0147829219328548      4.0053827534395596      4.0474817143657633
     2   1       4.014707858566771      2.0390284269855941      1.9970833264719561
     3   1      2.0313786125448279      4.0052220659753708      1.9961781443780842
     4   1       2.032038070953845      2.0384737430053019      4.0481596339648247
