(written by ASE)

4 atoms
1 atom types

0.0      4.0265759299305328  xlo xhi
0.0      4.0239577817860983  ylo yhi
0.0      4.0809320038163799  zlo zhi

Atoms # atomic

     1   1      4.0259977168666792       4.026098858206308      4.0523875355956651
     2   1      4.0258983137271809       2.019793919807189      1.9919590559491032
     3   1      2.0188890826596682      4.0263100100822848      1.9917087230117452
     4   1      2.0186099574362113      2.0202155382754543      4.0524667255800262
