LAMMPS data file via write_data, version 2 Aug 2023, timestep = 0, units = metal

32 atoms
1 atom types

-0.042997689905233116 8.107197689905185 xlo xhi
0.020143094324726718 8.044056905675488 ylo yhi
0.009494944014136308 8.054705055985801 zlo zhi

Masses

1 26.98153849305915

Atoms # atomic

4 1 2.015339264658516 2.011436736938236 8.039178717976654 0 0 -2
18 1 4.031336684310992 2.013103635452867 2.0132383682657498 0 0 0
11 1 2.0144348202225664 4.032589062672156 2.0122454848895344 0 0 0
25 1 4.030809361062795 4.031735813211815 8.039517579859263 0 0 -2
1 1 -0.004811646393143853 8.015782310509765 8.038849765438195 0 -2 -2
2 1 -0.006070121032730018 2.0109401968900573 2.0145616273467577 -1 0 0
20 1 6.049834739305186 2.0133806892059902 8.040736124584125 0 0 -2
24 1 6.05166098630368 2.012897838008883 4.031331880129905 0 0 0
3 1 2.0145368454604724 8.01500382164463 2.014744081234431 0 -2 0
26 1 4.031127196815885 6.050883642705144 2.015957304706349 0 0 0
13 1 -0.0052702756472859874 4.030939191861549 4.032122558748189 0 0 0
16 1 2.014945848820362 6.0510393047893904 4.031369496241105 0 0 0
19 1 6.050179341801681 8.01692447415861 2.0118927777757674 0 -2 0
10 1 -0.003854135918064461 6.052558537296084 2.0122914966402417 0 0 0
27 1 6.050282625247237 4.032169841840357 2.01349314699178 0 0 0
29 1 4.032873981480449 4.030421471177506 4.030738682740539 0 0 0
32 1 6.049897391800913 6.051945523692372 4.031703562938754 0 0 0
5 1 -0.004247951471027297 8.017250068749231 4.031483117304237 0 -2 0
6 1 -0.006003482935041678 2.012846014468979 6.050372162477051 -1 0 0
8 1 2.0136492091118177 2.011390197939281 4.030877419055507 0 0 0
21 1 4.030513229194659 8.015747783259481 4.033000001850134 0 -1 0
17 1 4.033159974111273 8.018507020238731 8.038840904666205 0 -2 -1
22 1 4.03366008984038 2.0114641298412956 6.052775604438694 0 0 0
23 1 6.051599149489745 8.016667182061937 6.0520639948565735 0 -1 0
31 1 6.049088558649737 4.031604100912139 6.05061088154445 0 0 0
12 1 2.012103870802358 6.052570379647521 8.038602961943425 0 0 -2
7 1 2.0134088380796453 8.016593159147588 6.050563497687681 0 -2 0
15 1 2.0141832313824186 4.033928652377236 6.0512195561775055 0 0 0
9 1 -0.004148489564958186 4.033861554194796 8.03939782771009 0 0 -1
28 1 6.051579854226122 6.051106884841999 8.038684885504539 0 0 -1
14 1 -0.004542054893021149 6.053206612706064 6.053462499713238 -1 0 0
30 1 4.032161110874882 6.051276769136304 6.050118229426214 0 0 0

Velocities

4 -0.09423695535393253 0.5769476639278422 2.0976890079836163
18 0.4876765223835359 1.7407131807679375 -0.8524362248192631
11 1.1084633282429743 -1.663567089652324 -0.6399625026411923
25 -2.0056622393515946 -0.5550154338109008 0.9185485894698721
1 1.6831005258099092 -1.196647446272024 1.2846989301190885
2 0.6461705193854294 1.2321982305214059 1.2068928729425263
20 -0.02884022152256268 1.1278452807700008 -0.5740187317134615
24 1.1856169897159938 -3.394717943541278 1.6858832529908583
3 -0.9377980312642233 -0.46425377162568454 -1.6109025154311043
26 0.6473111888633958 0.5514517429657209 -0.20118651254466394
13 -1.5035446135447736 -0.5173076513476483 0.5376854294911597
16 0.9710902496017632 0.09508813819178309 0.1974906654637464
19 1.6989861292789328 -1.2688568474021416 1.8231735415870176
10 -0.6723089743249334 0.5030870580864788 0.4835442724100702
27 3.4358547610886023 -1.2901463843028182 -0.46518347595829623
29 1.5485836342068842 2.8612844978214844 3.1721502576876417
32 -1.6326492747934898 -1.1926210264921695 -0.4049858110558485
5 -0.27304716102036286 -0.37506841052445444 0.7531292244407407
6 1.3361873120861438 1.5100912549922119 -3.0468047855545035
8 -0.22057671766701153 -1.3170856002625202 -0.9545955783670941
21 0.45230412120836117 1.8428938632524747 -1.0484003088796785
17 -0.5304539209881687 -1.2292653699248335 2.370048770523255
22 -2.0630810433722733 0.32645110910439684 -2.6818140912812733
23 0.37829581166667564 1.7862316748376426 -1.9588489514004392
31 0.0957875266614311 1.3653460974210623 -1.854583406373193
12 -0.12771046776975872 -1.1716228757382863 1.368799402876074
7 -3.133772531850484 -2.3869906099006952 -0.6200446663577115
15 -1.130731237351224 0.3210359754246765 0.6242151561380574
9 -0.867739884810911 1.999988729882162 -0.8100029630869674
28 1.6376703011154483 1.1256951412265825 -0.026864528419360215
14 0.13777217440363648 -0.19885043094282479 -0.5214113845676432
30 -2.228717820734211 -0.7443327474536893 -0.2519029356726911
