(written by ASE)

32 atoms
1 atom types

0.0      8.0641999999999996  xlo xhi
0.0      8.0641999999999996  ylo yhi
0.0      8.0641999999999996  zlo zhi

Masses

     1      26.981538493059151 # Al

Atoms # atomic

     1   1                       0                       0                       0
     2   1                       0      2.0160499999999999      2.0160499999999999
     3   1      2.0160499999999999                       0      2.0160499999999999
     4   1      2.0160499999999999      2.0160499999999999                       0
     5   1                       0                       0      4.0320999999999998
     6   1                       0      2.0160499999999999      6.0481499999999997
     7   1      2.0160499999999999                       0      6.0481499999999997
     8   1      2.0160499999999999      2.0160499999999999      4.0320999999999998
     9   1                       0      4.0320999999999998                       0
    10   1                       0      6.0481499999999997      2.0160499999999999
    11   1      2.0160499999999999      4.0320999999999998      2.0160499999999999
    12   1      2.0160499999999999      6.0481499999999997                       0
    13   1                       0      4.0320999999999998      4.0320999999999998
    14   1                       0      6.0481499999999997      6.0481499999999997
    15   1      2.0160499999999999      4.0320999999999998      6.0481499999999997
    16   1      2.0160499999999999      6.0481499999999997      4.0320999999999998
    17   1      4.0320999999999998                       0                       0
    18   1      4.0320999999999998      2.0160499999999999      2.0160499999999999
    19   1      6.0481499999999997                       0      2.0160499999999999
    20   1      6.0481499999999997      2.0160499999999999                       0
    21   1      4.0320999999999998                       0      4.0320999999999998
    22   1      4.0320999999999998      2.0160499999999999      6.0481499999999997
    23   1      6.0481499999999997                       0      6.0481499999999997
    24   1      6.0481499999999997      2.0160499999999999      4.0320999999999998
    25   1      4.0320999999999998      4.0320999999999998                       0
    26   1      4.0320999999999998      6.0481499999999997      2.0160499999999999
    27   1      6.0481499999999997      4.0320999999999998      2.0160499999999999
    28   1      6.0481499999999997      6.0481499999999997                       0
    29   1      4.0320999999999998      4.0320999999999998      4.0320999999999998
    30   1      4.0320999999999998      6.0481499999999997      6.0481499999999997
    31   1      6.0481499999999997      4.0320999999999998      6.0481499999999997
    32   1      6.0481499999999997      6.0481499999999997      4.0320999999999998
