(written by ASE)

810 atoms
3 atom types

0.0                 23.7546  xlo xhi
0.0      21.460207729856702  ylo yhi
0.0      21.519925174475699  zlo zhi
    -5.1358219041747013      -1.284135536236142    -0.28588182793942751  xy xz yz

Masses

     1      40.077999989690163 # Ca
     2      15.998999995884349 # O
     3      28.084999992775295 # Si

Atoms # charge

     1   1   0.0      7.0507571773018611       1.681482844618154      7.0894682694069049
     2   1   0.0     -1.2725429907721388      5.3766257893542724    0.083840122084994875
     3   1   0.0      3.8964630408252661      6.6321752638453466      1.8494841316796924
     4   1   0.0      1.8817511457044573     0.42593337012707877      5.3238242598122074
     5   1   0.0      4.8768775624966381      3.0210636672793925      1.8340521216039918
     6   1   0.0     0.90133662403308556      4.0370449666930339      5.3392562698879082
     7   2   0.0    -0.11387020024566538      1.8295294870117678      4.8253219360553654
     8   2   0.0      5.8920843867753883      5.2285791469606577      2.3479864554365344
     9   2   0.0     -1.0826766614954157      5.4581208563088381      4.8942351207085055
    10   2   0.0      6.8608908480251385      1.5999877776635878      2.2790732707833938
    11   2   0.0        1.50876994649379     0.40530968901788855     0.40268883093033736
    12   2   0.0      4.2694442400359334      6.6527989449545366      6.7706195605615616
    13   2   0.0     0.65248465872937522      3.8859341081926404     0.44071431634107577
    14   2   0.0      5.1257295278003481      3.1721745257797855      6.7325940751508231
    15   2   0.0      3.7387303731994193     0.97927761963465187      1.7057336856382996
    16   2   0.0      2.0394838133303037      6.0788310143377737      5.4675747058535995
    17   2   0.0      2.9171220399044602      4.3693745772553942      1.7903627281801906
    18   2   0.0      2.8610921466252637      2.6887340567170308      5.3829456633117081
    19   2   0.0      1.3783495180763035     0.90937652009055692      2.9301096849739263
    20   2   0.0      4.3998646684534206      6.1487321138818691      4.2431987065179717
    21   2   0.0     0.71610583910869119      3.3956577098305618      2.9460682876186457
    22   2   0.0      5.0621083474210327      3.6624509241418641      4.2272401038732532
    23   2   0.0      0.9092347247988557      5.8920846932272548      2.0409748818597295
    24   2   0.0      4.8689794617308664       1.166023940745172      5.1323335096321703
    25   3   0.0      2.3236029934762117     0.29308345526874502      1.7668326267951673
    26   3   0.0      3.4546111930535117      6.7650251787036808      5.4064757646967321
    27   3   0.0      1.3431209925515213      4.3612035945956729      1.8003736539051889
    28   3   0.0      4.4350931939782017      2.6969050393767535      5.3729347375867098
    29   3   0.0      0.1378846757789832      1.9097813688514211      3.2704325963260574
    30   3   0.0      5.6403295107507407      5.1483272651210044      3.9028757951658424
    31   1   0.0        6.62271199855648      1.5861889019716782      14.262776660898805
    32   1   0.0     -1.7005881695175196      5.2813318467077961      7.2571485135768947
    33   1   0.0      3.4684178620798853      6.5368813211988703      9.0227925231715922
    34   1   0.0      1.4537059669590766     0.33063942748060293      12.497132651304106
    35   1   0.0      4.4488323837512569      2.9257697246329171      9.0073605130958914
    36   1   0.0     0.47329144528770495      3.9417510240465585      12.512564661379809
    37   2   0.0    -0.54191537899104614      1.7342355443652919      11.998630327547264
    38   2   0.0      5.4640392080300071      5.1332852043141814      9.5212948469284342
    39   2   0.0     -1.5107218402407965      5.3628269136623619      12.067543512200405
    40   2   0.0      6.4328456692797573       1.504693835017112      9.4523816622752932
    41   2   0.0      1.0807247677484093     0.31001574637141266      7.5759972224222372
    42   2   0.0      3.8413990612905526      6.5575050023080603       13.94392795205346
    43   2   0.0     0.22443947998399447      3.7906401655461646      7.6140227078329756
    44   2   0.0      4.6976843490549678      3.0768805831333101      13.905902466642722
    45   2   0.0      3.3106851944540385     0.88398367698817604      8.8790420771301992
    46   2   0.0      1.6114386345849228      5.9835370716912974      12.640883097345499
    47   2   0.0      2.4890768611590794       4.274080634608918      8.9636711196720906
    48   2   0.0      2.4330469678798829      2.5934401140705554      12.556254054803608
    49   2   0.0     0.95030433933092262     0.81408257744408108      10.103418076465825
    50   2   0.0      3.9718194897080399      6.0534381712353929      11.416507098009872
    51   2   0.0     0.28806066036331057      3.3003637671840864      10.119376679110545
    52   2   0.0      4.6340631686756515      3.5671569814953887      11.400548495365154
    53   2   0.0     0.48118954605347503      5.7967907505807785      9.2142832733516293
    54   2   0.0      4.4409342829854861      1.0707299980986962      12.305641901124069
    55   3   0.0      1.8955578147308307     0.19778951262226913      8.9401410182870666
    56   3   0.0       3.026566014308131      6.6697312360572045      12.579784156188632
    57   3   0.0     0.91507581380614067      4.2659096519491966      8.9736820453970889
    58   3   0.0      4.0070480152328214      2.6016110967302781       12.54624312907861
    59   3   0.0     -0.2901605029663975      1.8144874262049453      10.443740987817957
    60   3   0.0      5.2122843320053596      5.0530333224745281      11.076184186657741
    61   1   0.0      6.1946668198111006      1.4908949593252023      21.436085052390702
    62   1   0.0     -2.1286333482629001      5.1860379040613207      14.430456905068795
    63   1   0.0      3.0403726833345046      6.4415873785523958      16.196100914663493
    64   1   0.0      1.0256607882136959     0.23534548483412704      19.670441042796007
    65   1   0.0      4.0207872050058766      2.8304757819864408       16.18066890458779
    66   1   0.0    0.045246266542324214      3.8464570814000822      19.685873052871706
    67   2   0.0    -0.96996055773642675      1.6389416017188159      19.171938719039165
    68   2   0.0      5.0359940292846268      5.0379912616677069      16.694603238420335
    69   2   0.0     -1.9387670189861772      5.2675329710158874      19.240851903692306
    70   2   0.0       6.004800490534377      1.4093998923706361      16.625690053767194
    71   2   0.0     0.65267958900302858     0.21472180372493682      14.749305613914137
    72   2   0.0      3.4133538825451715      6.4622110596615858      21.117236343545361
    73   2   0.0    -0.20360569876138623      3.6953462228996887      14.787331099324875
    74   2   0.0      4.2696391703095875      2.9815866404868339      21.079210858134623
    75   2   0.0      2.8826400157086578     0.78868973434170031      16.052350468622098
    76   2   0.0       1.183393455839542      5.8882431290448229      19.814191488837398
    77   2   0.0      2.0610316824136987      4.1787866919624435       16.13697951116399
    78   2   0.0      2.0050017891345022      2.4981461714240791      19.729562446295507
    79   2   0.0       0.522259160585542     0.71878863479760513      17.276726467957726
    80   2   0.0      3.5437743109626587      5.9581442285889183       18.58981548950177
    81   2   0.0    -0.13998451838207013      3.2050698245376101      17.292685070602445
    82   2   0.0      4.2060179899302712      3.4718630388489125      18.573856886857051
    83   2   0.0    0.053144367308094374       5.701496807934304       16.38759166484353
    84   2   0.0      4.0128891042401058     0.97543605545222023       19.47895029261597
    85   3   0.0        1.46751263598545     0.10249556997579329      16.113449409778966
    86   3   0.0      2.5985208355627503        6.57443729341073      19.753092547680531
    87   3   0.0        0.48703063506076      4.1706157093027221      16.146990436888988
    88   3   0.0      3.5790028364874407      2.5063171540838018      19.719551520570509
    89   3   0.0    -0.71820568171177823      1.7191934835584695      17.617049379309858
    90   3   0.0      4.7842391532599793      4.9577393798280536      18.249492578149642
    91   1   0.0      5.3388165425769607       8.834885421237054       7.089468269406904
    92   1   0.0     -2.9844836254970395      12.530028365973173    0.083840122084994848
    93   1   0.0      2.1845224061003656      13.785577840464248      1.8494841316796924
    94   1   0.0     0.16981051097955682      7.5793359467459798      5.3238242598122074
    95   1   0.0      3.1649369277717372      10.174466243898292      1.8340521216039918
    96   1   0.0    -0.81060401069181487      11.190447543311935      5.3392562698879082
    97   2   0.0     -1.8258108349705657      8.9829320636306687      4.8253219360553654
    98   2   0.0      4.1801437520504878      12.381981723579559      2.3479864554365344
    99   2   0.0     -2.7946172962203164       12.61152343292774      4.8942351207085046
   100   2   0.0      5.1489502133002381      8.7533903542824874      2.2790732707833943
   101   2   0.0    -0.20317068823111045      7.5587122656367889     0.40268883093033736
   102   2   0.0      2.5575036053110329      13.806201521573438      6.7706195605615616
   103   2   0.0     -1.0594559759955253      11.039336684811541     0.44071431634107577
   104   2   0.0      3.4137888930754476      10.325577102398686      6.7325940751508231
   105   2   0.0      2.0267897384745184      8.1326801962535527      1.7057336856382996
   106   2   0.0       0.327543178605403      13.232233590956675      5.4675747058535995
   107   2   0.0      1.2051814051795593      11.522777153874294      1.7903627281801906
   108   2   0.0       1.149151511900363      9.8421366333359313      5.3829456633117081
   109   2   0.0    -0.33359111664859709      8.0627790967094572      2.9301096849739263
   110   2   0.0      2.6879240337285193       13.30213469050077      4.2431987065179717
   111   2   0.0    -0.99583479561620925      10.549060286449462      2.9460682876186457
   112   2   0.0      3.3501677126961313      10.815853500760765      4.2272401038732532
   113   2   0.0    -0.80270590992604474      13.045487269846156      2.0409748818597295
   114   2   0.0      3.1570388270059659      8.3194265173640716      5.1323335096321694
   115   3   0.0     0.61166235875131103      7.4464860318876456      1.7668326267951673
   116   3   0.0      1.7426705583286115      13.918427755322583      5.4064757646967321
   117   3   0.0    -0.36881964217337904      11.514606171214574      1.8003736539051889
   118   3   0.0      2.7231525592533012      9.8503076159956535      5.3729347375867098
   119   3   0.0     -1.5740559589459171      9.0631839454703211      3.2704325963260574
   120   3   0.0      3.9283888760258394      12.301729841739906      3.9028757951658424
   121   1   0.0      4.9107713638315804      8.7395914785905777      14.262776660898805
   122   1   0.0     -3.4125288042424202      12.434734423326697      7.2571485135768938
   123   1   0.0      1.7564772273549849      13.690283897817771      9.0227925231715922
   124   1   0.0    -0.25823466776582393      7.4840420040995035      12.497132651304106
   125   1   0.0      2.7368917490263565      10.079172301251816      9.0073605130958914
   126   1   0.0     -1.2386491894371956      11.095153600665459      12.512564661379809
   127   2   0.0     -2.2538560137159469      8.8876381209841924      11.998630327547264
   128   2   0.0      3.7520985733051067      12.286687780933082      9.5212948469284342
   129   2   0.0     -3.2226624749656971      12.516229490281262      12.067543512200405
   130   2   0.0      4.7209050345548578      8.6580964116360128      9.4523816622752932
   131   2   0.0    -0.63121586697649112      7.4634183229903126      7.5759972224222372
   132   2   0.0      2.1294584265656522       13.71090757892696       13.94392795205346
   133   2   0.0     -1.4875011547409061      10.944042742165065      7.6140227078329747
   134   2   0.0      2.9857437143300669       10.23028315975221      13.905902466642722
   135   2   0.0      1.5987445597291379      8.0373862536070764      8.8790420771301992
   136   2   0.0    -0.10050200013997779      13.136939648310198      12.640883097345499
   137   2   0.0     0.77713622643417857       11.42748321122782      8.9636711196720906
   138   2   0.0     0.72110633315498229       9.746842690689455      12.556254054803608
   139   2   0.0    -0.76163629539397781       7.967485154062981      10.103418076465825
   140   2   0.0       2.259878854983139      13.206840747854294      11.416507098009872
   141   2   0.0       -1.42387997436159      10.453766343802986      10.119376679110545
   142   2   0.0      2.9221225339507511      10.720559558114289      11.400548495365154
   143   2   0.0     -1.2307510886714255      12.950193327199679      9.2142832733516293
   144   2   0.0      2.7289936482605852      8.2241325747175971      12.305641901124069
   145   3   0.0      0.1836171800059303      7.3511920892411693      8.9401410182870666
   146   3   0.0      1.3146253795832308      13.823133812676105      12.579784156188632
   147   3   0.0    -0.79686482091875988      11.419312228568097      8.9736820453970889
   148   3   0.0      2.2951073805079205      9.7550136733491772       12.54624312907861
   149   3   0.0      -2.002101137691298      8.9678900028238466      10.443740987817957
   150   3   0.0      3.5003436972804591      12.206435899093428      11.076184186657741
   151   1   0.0      4.4827261850862001      8.6442975359441032      21.436085052390702
   152   1   0.0     -3.8405739829878005      12.339440480680221      14.430456905068795
   153   1   0.0      1.3284320486096044      13.594989955171297      16.196100914663493
   154   1   0.0    -0.68627984651120444       7.388748061453029      19.670441042796007
   155   1   0.0      2.3088465702809762      9.9838783586053417       16.18066890458779
   156   1   0.0     -1.6666943681825761      10.999859658018984      19.685873052871706
   157   2   0.0     -2.6819011924613272      8.7923441783377161      19.171938719039165
   158   2   0.0      3.3240533945597259      12.191393838286608      16.694603238420335
   159   2   0.0     -3.6507076537110774      12.420935547634787      19.240851903692306
   160   2   0.0      4.2928598558094766      8.5628024689895366      16.625690053767194
   161   2   0.0     -1.0592610457218716      7.3681243803438381      14.749305613914137
   162   2   0.0      1.7014132478202717      13.615613636280486      21.117236343545361
   163   2   0.0     -1.9155463334862866      10.848748799518589      14.787331099324875
   164   2   0.0      2.5576985355846862      10.134989217105733      21.079210858134623
   165   2   0.0      1.1706993809837574      7.9420923109606019      16.052350468622098
   166   2   0.0    -0.52854717888535829      13.041645705663722      19.814191488837398
   167   2   0.0     0.34909104768879812      11.332189268581343       16.13697951116399
   168   2   0.0     0.29306115440960179      9.6515487480429805      19.729562446295507
   169   2   0.0     -1.1896814741393582      7.8721912114165065      17.276726467957726
   170   2   0.0      1.8318336762377583      13.111546805207819       18.58981548950177
   171   2   0.0     -1.8519251531069705      10.358472401156511      17.292685070602445
   172   2   0.0      2.4940773552053703      10.625265615467812      18.573856886857051
   173   2   0.0      -1.658796267416806      12.854899384553203       16.38759166484353
   174   2   0.0      2.3009484695152049      8.1288386320711208       19.47895029261597
   175   3   0.0     -0.2444279987394502      7.2558981465946948      16.113449409778966
   176   3   0.0     0.88658020083785016       13.72783987002963      19.753092547680531
   177   3   0.0     -1.2249099996641404      11.324018285921621      16.146990436888988
   178   3   0.0      1.8670622017625402      9.6597197307027027      19.719551520570509
   179   3   0.0     -2.4301463164366788      8.8725960601773703      17.617049379309858
   180   3   0.0      3.0722985185350784      12.111141956446954      18.249492578149642
   181   1   0.0      3.6268759078520603      15.988287997855956      7.0894682694069049
   182   1   0.0     -4.6964242602219395      19.683430942592075    0.083840122084994848
   183   1   0.0      0.4725817713754652      20.938980417083148      1.8494841316796924
   184   1   0.0     -1.5421301237453435       14.73273852336488      5.3238242598122074
   185   1   0.0      1.4529962930468368      17.327868820517192      1.8340521216039916
   186   1   0.0     -2.5225446454167151      18.343850119930835      5.3392562698879082
   187   2   0.0     -3.5377514696954662      16.136334640249569      4.8253219360553654
   188   2   0.0      2.4682031173255865      19.535384300198459      2.3479864554365344
   189   2   0.0     -4.5065579309452168      19.764926009546642      4.8942351207085055
   190   2   0.0      3.4370095785753376      15.906792930901389      2.2790732707833943
   191   2   0.0     -1.9151113229560108      14.712114842255691      0.4026888309303373
   192   2   0.0     0.84556297058613239      20.959604098192337      6.7706195605615616
   193   2   0.0     -2.7713966107204255      18.192739261430443     0.44071431634107577
   194   2   0.0      1.7018482583505472      17.478979679017588       6.732594075150824
   195   2   0.0     0.31484910374961811      15.286082772872453      1.7057336856382994
   196   2   0.0     -1.3843974561194974      20.385636167575576      5.4675747058535995
   197   2   0.0    -0.50675922954534114      18.676179730493196      1.7903627281801904
   198   2   0.0    -0.56278912282453741      16.995539209954831      5.3829456633117081
   199   2   0.0     -2.0455317513734976      15.216181673328359      2.9301096849739268
   200   2   0.0     0.97598339900361908       20.45553726711967      4.2431987065179717
   201   2   0.0     -2.7077754303411097      17.702462863068362      2.9460682876186457
   202   2   0.0      1.6382270779712311      17.969256077379665      4.2272401038732541
   203   2   0.0     -2.5146465446509452      20.198889846465057      2.0409748818597295
   204   2   0.0       1.445098192281066      15.472829093982973      5.1323335096321703
   205   3   0.0     -1.1002782759735894      14.599888608506546      1.7668326267951673
   206   3   0.0    0.030729923603710942      21.071830331941484      5.4064757646967321
   207   3   0.0     -2.0807602768982791      18.668008747833476      1.8003736539051889
   208   3   0.0       1.011211924528401      17.003710192614555      5.3729347375867107
   209   3   0.0     -3.2859965936708178      16.216586522089223      3.2704325963260574
   210   3   0.0       2.216448241300939      19.455132418358808      3.9028757951658424
   211   1   0.0        3.19883072910668      15.892994055209479      14.262776660898805
   212   1   0.0     -5.1244694389673207      19.588136999945597      7.2571485135768947
   213   1   0.0    0.044536592630084665      20.843686474436673      9.0227925231715922
   214   1   0.0      -1.970175302490724      14.637444580718403      12.497132651304108
   215   1   0.0      1.0249511143014562      17.232574877870718      9.0073605130958914
   216   1   0.0     -2.9505898241620958       18.24855617728436      12.512564661379809
   217   2   0.0     -3.9657966484408469      16.041040697603094      11.998630327547266
   218   2   0.0      2.0401579385802062      19.440090357551984      9.5212948469284342
   219   2   0.0     -4.9346031096905971      19.669632066900164      12.067543512200404
   220   2   0.0      3.0089643998299569      15.811498988254913      9.4523816622752932
   221   2   0.0     -2.3431565017013916      14.616820899609214      7.5759972224222372
   222   2   0.0     0.41751779184075194      20.864310155545862      13.943927952053462
   223   2   0.0     -3.1994417894658063      18.097445318783965      7.6140227078329756
   224   2   0.0      1.2738030796051667       17.38368573637111      13.905902466642724
   225   2   0.0    -0.11319607499576238      15.190788830225976      8.8790420771301992
   226   2   0.0     -1.8124426348648779      20.290342224929098      12.640883097345501
   227   2   0.0    -0.93480440829072164      18.580885787846718      8.9636711196720906
   228   2   0.0    -0.99083430156991792      16.900245267308357       12.55625405480361
   229   2   0.0     -2.4735769301188779      15.120887730681883      10.103418076465827
   230   2   0.0     0.54793822025823857      20.360243324473196      11.416507098009873
   231   2   0.0       -3.13582060908649      17.607168920421888      10.119376679110546
   232   2   0.0      1.2101818992258506      17.873962134733191      11.400548495365154
   233   2   0.0     -2.9426917233963259      20.103595903818579      9.2142832733516293
   234   2   0.0      1.0170530135356854      15.377535151336497      12.305641901124069
   235   3   0.0     -1.5283234547189699       14.50459466586007      8.9401410182870684
   236   3   0.0     -0.3973152551416696      20.976536389295006      12.579784156188634
   237   3   0.0     -2.5088054556436599      18.572714805186997      8.9736820453970889
   238   3   0.0     0.58316674578302052      16.908416249968077      12.546243129078611
   239   3   0.0      -3.714041772416198      16.121292579442745      10.443740987817957
   240   3   0.0      1.7884030625555587       19.35983847571233      11.076184186657743
   241   1   0.0      2.7707855503612988      15.797700112563003      21.436085052390702
   242   1   0.0     -5.5525146177127018      19.492843057299122      14.430456905068793
   243   1   0.0    -0.38350858611529631      20.748392531790195      16.196100914663493
   244   1   0.0      -2.398220481236105      14.542150638071927      19.670441042796007
   245   1   0.0     0.59690593555607541       17.13728093522424       16.18066890458779
   246   1   0.0     -3.3786350029074765      18.153262234637882      19.685873052871706
   247   2   0.0     -4.3938418271862281      15.945746754956616      19.171938719039165
   248   2   0.0      1.6121127598348255      19.344796414905506      16.694603238420335
   249   2   0.0     -5.3626482884359783      19.574338124253686      19.240851903692306
   250   2   0.0      2.5809192210845757      15.716205045608437      16.625690053767194
   251   2   0.0     -2.7712016804467723      14.521526956962738      14.749305613914137
   252   2   0.0   -0.010527386904629015      20.769016212899388      21.117236343545361
   253   2   0.0      -3.627486968211187      18.002151376137491      14.787331099324875
   254   2   0.0     0.84575790085978586      17.288391793724635      21.079210858134623
   255   2   0.0     -0.5412412537411434        15.0954948875795      16.052350468622098
   256   2   0.0     -2.2404878136102591      20.195048282282624      19.814191488837398
   257   2   0.0     -1.3628495870361026      18.485591845200243       16.13697951116399
   258   2   0.0     -1.4188794803152989      16.804951324661879      19.729562446295507
   259   2   0.0     -2.9016221088642591      15.025593788035406      17.276726467957726
   260   2   0.0      0.1198930415128576      20.264949381826717       18.58981548950177
   261   2   0.0     -3.5638657878318711       17.51187497777541      17.292685070602445
   262   2   0.0     0.78213672048046967      17.778668192086712      18.573856886857051
   263   2   0.0     -3.3707369021417071      20.008301961172105       16.38759166484353
   264   2   0.0     0.58900783479030427      15.282241208690021       19.47895029261597
   265   3   0.0     -1.9563686334643509      14.409300723213594      16.113449409778966
   266   3   0.0     -0.8253604338870506      20.881242446648528      19.753092547680531
   267   3   0.0     -2.9368506343890406      18.477420862540523      16.146990436888988
   268   3   0.0     0.15512156703763955      16.813122307321603      19.719551520570509
   269   3   0.0     -4.1420869511615797       16.02599863679627      17.617049379309858
   270   3   0.0      1.3603578838101777      19.264544533065852      18.249492578149642
   271   1   0.0      14.968957177301862      1.6814828446181542      7.0894682694069049
   272   1   0.0      6.6456570092278611      5.3766257893542724    0.083840122084994931
   273   1   0.0      11.814663040825266      6.6321752638453475      1.8494841316796926
   274   1   0.0      9.7999511457044584     0.42593337012707899      5.3238242598122074
   275   1   0.0      12.795077562496637      3.0210636672793925       1.834052121603992
   276   1   0.0      8.8195366240330859      4.0370449666930348      5.3392562698879082
   277   2   0.0      7.8043297997543339       1.829529487011768      4.8253219360553654
   278   2   0.0      13.810284386775388      5.2285791469606586      2.3479864554365344
   279   2   0.0      6.8355233385045837      5.4581208563088381      4.8942351207085055
   280   2   0.0      14.779090848025138       1.599987777663588      2.2790732707833938
   281   2   0.0      9.4269699464937897     0.40530968901788877     0.40268883093033736
   282   2   0.0      12.187644240035933      6.6527989449545375      6.7706195605615616
   283   2   0.0       8.570684658729375      3.8859341081926404     0.44071431634107583
   284   2   0.0      13.043929527800348      3.1721745257797855      6.7325940751508231
   285   2   0.0      11.656930373199419     0.97927761963465221      1.7057336856382996
   286   2   0.0      9.9576838133303038      6.0788310143377746      5.4675747058535995
   287   2   0.0       10.83532203990446      4.3693745772553951      1.7903627281801906
   288   2   0.0      10.779292146625263      2.6887340567170313      5.3829456633117081
   289   2   0.0      9.2965495180763043     0.90937652009055714      2.9301096849739263
   290   2   0.0       12.31806466845342        6.14873211388187      4.2431987065179717
   291   2   0.0      8.6343058391086913      3.3956577098305618      2.9460682876186457
   292   2   0.0      12.980308347421033      3.6624509241418641      4.2272401038732532
   293   2   0.0      8.8274347247988558      5.8920846932272557      2.0409748818597295
   294   2   0.0      12.787179461730867      1.1660239407451725      5.1323335096321694
   295   3   0.0      10.241802993476211     0.29308345526874524      1.7668326267951675
   296   3   0.0      11.372811193053511      6.7650251787036817      5.4064757646967321
   297   3   0.0      9.2613209925515214      4.3612035945956737      1.8003736539051891
   298   3   0.0      12.353293193978203      2.6969050393767535      5.3729347375867098
   299   3   0.0      8.0560846757789832      1.9097813688514214      3.2704325963260574
   300   3   0.0      13.558529510750741      5.1483272651210052      3.9028757951658424
   301   1   0.0       14.54091199855648      1.5861889019716784      14.262776660898805
   302   1   0.0      6.2176118304824799      5.2813318467077961      7.2571485135768947
   303   1   0.0      11.386617862079886      6.5368813211988712      9.0227925231715922
   304   1   0.0      9.3719059669590745      0.3306394274806031      12.497132651304108
   305   1   0.0      12.367032383751258      2.9257697246329171      9.0073605130958914
   306   1   0.0      8.3914914452877039      3.9417510240465585      12.512564661379807
   307   2   0.0      7.3762846210089537      1.7342355443652921      11.998630327547264
   308   2   0.0      13.382239208030006      5.1332852043141823      9.5212948469284342
   309   2   0.0      6.4074781597592034      5.3628269136623619      12.067543512200405
   310   2   0.0      14.351045669279756      1.5046938350171122       9.452381662275295
   311   2   0.0      8.9989247677484094     0.31001574637141294      7.5759972224222372
   312   2   0.0      11.759599061290553      6.5575050023080612      13.943927952053462
   313   2   0.0      8.1426394799839947      3.7906401655461646      7.6140227078329756
   314   2   0.0      12.615884349054967      3.0768805831333101      13.905902466642724
   315   2   0.0      11.228885194454039     0.88398367698817626      8.8790420771301992
   316   2   0.0      9.5296386345849218      5.9835370716912983      12.640883097345498
   317   2   0.0       10.40727686115908      4.2740806346089188      8.9636711196720906
   318   2   0.0      10.351246967879883      2.5934401140705554      12.556254054803608
   319   2   0.0      8.8685043393309204      0.8140825774440813      10.103418076465827
   320   2   0.0      11.890019489708038      6.0534381712353937      11.416507098009872
   321   2   0.0      8.2062606603633093      3.3003637671840864      10.119376679110545
   322   2   0.0      12.552263168675649      3.5671569814953887      11.400548495365154
   323   2   0.0      8.3993895460534755      5.7967907505807794      9.2142832733516293
   324   2   0.0      12.359134282985485      1.0707299980986966      12.305641901124071
   325   3   0.0      9.8137578147308311     0.19778951262226935      8.9401410182870684
   326   3   0.0      10.944766014308131      6.6697312360572054      12.579784156188632
   327   3   0.0      8.8332758138061411      4.2659096519491975      8.9736820453970871
   328   3   0.0      11.925248015232819      2.6016110967302781       12.54624312907861
   329   3   0.0      7.6280394970336021      1.8144874262049455      10.443740987817957
   330   3   0.0      13.130484332005357       5.053033322474529      11.076184186657743
   331   1   0.0      14.112866819811101      1.4908949593252026      21.436085052390702
   332   1   0.0      5.7895666517370996      5.1860379040613198      14.430456905068795