(written by ASE)

9 atoms
2 atom types

0.0      6.1873920860639755  xlo xhi
0.0      5.3628313320223828  ylo yhi
0.0      3.0881565662937569  zlo zhi
     -3.096232113161725                       0                       0  xy xz yz

Atoms # atomic

     1   1      2.4274008743584421    0.016950978494452418      3.0741093203568237
     2   1      4.9222097244422045      2.0778102430715859      3.0740419115294366
     3   1      1.8920333156908526       3.210735318136297      3.0740392579814149
     4   1      1.4361525305500376      5.3353460308749456      1.5299072306349728
     5   1      3.9097514762988417      3.9238678847846953      1.5299221343978462
     6   1     0.80002989050054041      1.4098422365434526      1.5298787735323551
     7   2      3.0786282171514774      5.3454909947728133      3.0737881343123989
     8   2   -0.014366119547913595      3.5561318569468492      1.5298978976611493
     9   2      3.0798458319479138      1.7694385304826719      1.5298522997299435
