(written by ASE)

243 atoms
2 atom types

0.0      18.533099999999965  xlo xhi
0.0      16.050135410877346  ylo yhi
0.0      9.2361000000000004  zlo zhi
    -9.2665499999999827                       0                       0  xy xz yz

Masses

     1      55.844999985634189 # Fe
     2      30.973761990032177 # P

Atoms # atomic

     1   1      2.4559749057299949 -1.5742493674710578e-16                       0
     2   1     -1.2279874528649974      2.1269366594192674                       0
     3   1       1.860862547134996       3.223108477539848                       0
     4   1      4.5405824416739895 -2.9104568699291538e-16                 1.53935
     5   1     -2.2702912208369947      3.9322597424672492                 1.53935
     6   1      0.8185587791629988      1.4177853944918664                 1.53935
     7   2                       0                       0                       0
     8   2 -3.3719323629573925e-17      3.5666967579727435                 1.53935
     9   2      3.0888499999999932      1.7833483789863716                 1.53935
    10   1      2.4559749057299949 -1.5742493674710578e-16                  3.0787
    11   1     -1.2279874528649974      2.1269366594192674                  3.0787
    12   1       1.860862547134996       3.223108477539848                  3.0787
    13   1      4.5405824416739895 -2.9104568699291538e-16      4.6180500000000002
    14   1     -2.2702912208369947      3.9322597424672492      4.6180500000000002
    15   1      0.8185587791629988      1.4177853944918664      4.6180500000000002
    16   2                       0                       0                  3.0787
    17   2 -3.3719323629573925e-17      3.5666967579727435      4.6180500000000002
    18   2      3.0888499999999932      1.7833483789863716      4.6180500000000002
    19   1      2.4559749057299949 -1.5742493674710578e-16                  6.1574
    20   1     -1.2279874528649974      2.1269366594192674                  6.1574
    21   1       1.860862547134996       3.223108477539848                  6.1574
    22   1      4.5405824416739895 -2.9104568699291538e-16      7.6967499999999998
    23   1     -2.2702912208369947      3.9322597424672492      7.6967499999999998
    24   1      0.8185587791629988      1.4177853944918664      7.6967499999999998
    25   2                       0                       0                  6.1574
    26   2 -3.3719323629573925e-17      3.5666967579727435      7.6967499999999998
    27   2      3.0888499999999932      1.7833483789863716      7.6967499999999998
    28   1    -0.63287509426999866      5.3500451369591158                       0
    29   1     -4.3168374528649904      7.4769817963783831                       0
    30   1     -1.2279874528649977      8.5731536144989633                       0
    31   1      1.4517324416739961      5.3500451369591158                 1.53935
    32   1      -5.359141220836988      9.2823048794263645                 1.53935
    33   1     -2.2702912208369947      6.7678305314509819                 1.53935
    34   2     -3.0888499999999937      5.3500451369591158                       0
    35   2     -3.0888499999999937      8.9167418949318602                 1.53935
    36   2 -4.4408920985006257e-16      7.1333935159454871                 1.53935
    37   1    -0.63287509426999866      5.3500451369591158                  3.0787
    38   1     -4.3168374528649904      7.4769817963783831                  3.0787
    39   1     -1.2279874528649977      8.5731536144989633                  3.0787
    40   1      1.4517324416739961      5.3500451369591158      4.6180500000000002
    41   1      -5.359141220836988      9.2823048794263645      4.6180500000000002
    42   1     -2.2702912208369947      6.7678305314509819      4.6180500000000002
    43   2     -3.0888499999999937      5.3500451369591158                  3.0787
    44   2     -3.0888499999999937      8.9167418949318602      4.6180500000000002
    45   2 -4.4408920985006257e-16      7.1333935159454871      4.6180500000000002
    46   1    -0.63287509426999866      5.3500451369591158                  6.1574
    47   1     -4.3168374528649904      7.4769817963783831                  6.1574
    48   1     -1.2279874528649977      8.5731536144989633                  6.1574
    49   1      1.4517324416739961      5.3500451369591158      7.6967499999999998
    50   1      -5.359141220836988      9.2823048794263645      7.6967499999999998
    51   1     -2.2702912208369947      6.7678305314509819      7.6967499999999998
    52   2     -3.0888499999999937      5.3500451369591158                  6.1574
    53   2     -3.0888499999999937      8.9167418949318602      7.6967499999999998
    54   2 -4.4408920985006257e-16      7.1333935159454871      7.6967499999999998
    55   1     -3.7217250942699924      10.700090273918232                       0
    56   1      -7.405687452864985        12.8270269333375                       0
    57   1     -4.3168374528649913      13.923198751458079                       0
    58   1     -1.6371175583259976      10.700090273918232                 1.53935
    59   1     -8.4479912208369807       14.63235001638548                 1.53935
    60   1      -5.359141220836988      12.117875668410099                 1.53935
    61   2     -6.1776999999999873      10.700090273918232                       0
    62   2     -6.1776999999999873      14.266787031890974                 1.53935
    63   2     -3.0888499999999941      12.483438652904603                 1.53935
    64   1     -3.7217250942699924      10.700090273918232                  3.0787
    65   1      -7.405687452864985        12.8270269333375                  3.0787
    66   1     -4.3168374528649913      13.923198751458079                  3.0787
    67   1     -1.6371175583259976      10.700090273918232      4.6180500000000002
    68   1     -8.4479912208369807       14.63235001638548      4.6180500000000002
    69   1      -5.359141220836988      12.117875668410099      4.6180500000000002
    70   2     -6.1776999999999873      10.700090273918232                  3.0787
    71   2     -6.1776999999999873      14.266787031890974      4.6180500000000002
    72   2     -3.0888499999999941      12.483438652904603      4.6180500000000002
    73   1     -3.7217250942699924      10.700090273918232                  6.1574
    74   1      -7.405687452864985        12.8270269333375                  6.1574
    75   1     -4.3168374528649913      13.923198751458079                  6.1574
    76   1     -1.6371175583259976      10.700090273918232      7.6967499999999998
    77   1     -8.4479912208369807       14.63235001638548      7.6967499999999998
    78   1      -5.359141220836988      12.117875668410099      7.6967499999999998
    79   2     -6.1776999999999873      10.700090273918232                  6.1574
    80   2     -6.1776999999999873      14.266787031890974      7.6967499999999998
    81   2     -3.0888499999999941      12.483438652904603      7.6967499999999998
    82   1      8.6336749057299809 -5.5340782300282985e-16                       0
    83   1      4.9497125471349896      2.1269366594192669                       0
    84   1      8.0385625471349833      3.2231084775398475                       0
    85   1      10.718282441673976 -6.8702857324863946e-16                 1.53935
    86   1      3.9074087791629926      3.9322597424672487                 1.53935
    87   1      6.9962587791629867      1.4177853944918659                 1.53935
    88   2      6.1776999999999873 -3.9598288625572412e-16                       0
    89   2      6.1776999999999873      3.5666967579727431                 1.53935
    90   2      9.2665499999999792      1.7833483789863711                 1.53935
    91   1      8.6336749057299809 -5.5340782300282985e-16                  3.0787
    92   1      4.9497125471349896      2.1269366594192669                  3.0787
    93   1      8.0385625471349833      3.2231084775398475                  3.0787
    94   1      10.718282441673976 -6.8702857324863946e-16      4.6180500000000002
    95   1      3.9074087791629926      3.9322597424672487      4.6180500000000002
    96   1      6.9962587791629867      1.4177853944918659      4.6180500000000002
    97   2      6.1776999999999873 -3.9598288625572412e-16                  3.0787
    98   2      6.1776999999999873      3.5666967579727431      4.6180500000000002
    99   2      9.2665499999999792      1.7833483789863711      4.6180500000000002
   100   1      8.6336749057299809 -5.5340782300282985e-16                  6.1574
   101   1      4.9497125471349896      2.1269366594192669                  6.1574
   102   1      8.0385625471349833      3.2231084775398475                  6.1574
   103   1      10.718282441673976 -6.8702857324863946e-16      7.6967499999999998
   104   1      3.9074087791629926      3.9322597424672487      7.6967499999999998
   105   1      6.9962587791629867      1.4177853944918659      7.6967499999999998
   106   2      6.1776999999999873 -3.9598288625572412e-16                  6.1574
   107   2      6.1776999999999873      3.5666967579727431      7.6967499999999998
   108   2      9.2665499999999792      1.7833483789863711      7.6967499999999998
   109   1      5.5448249057299881      5.3500451369591158                       0
   110   1      1.8608625471349962      7.4769817963783831                       0
   111   1      4.9497125471349896      8.5731536144989633                       0
   112   1      7.6294324416739832      5.3500451369591149                 1.53935
   113   1      0.8185587791629988      9.2823048794263645                 1.53935
   114   1      3.9074087791629926      6.7678305314509819                 1.53935
   115   2      3.0888499999999937      5.3500451369591158                       0
   116   2      3.0888499999999937      8.9167418949318602                 1.53935
   117   2      6.1776999999999864      7.1333935159454871                 1.53935
   118   1      5.5448249057299881      5.3500451369591158                  3.0787
   119   1      1.8608625471349962      7.4769817963783831                  3.0787
   120   1      4.9497125471349896      8.5731536144989633                  3.0787
   121   1      7.6294324416739832      5.3500451369591149      4.6180500000000002
   122   1      0.8185587791629988      9.2823048794263645      4.6180500000000002
   123   1      3.9074087791629926      6.7678305314509819      4.6180500000000002
   124   2      3.0888499999999937      5.3500451369591158                  3.0787
   125   2      3.0888499999999937      8.9167418949318602      4.6180500000000002
   126   2      6.1776999999999864      7.1333935159454871      4.6180500000000002
   127   1      5.5448249057299881      5.3500451369591158                  6.1574
   128   1      1.8608625471349962      7.4769817963783831                  6.1574
   129   1      4.9497125471349896      8.5731536144989633                  6.1574
   130   1      7.6294324416739832      5.3500451369591149      7.6967499999999998
   131   1      0.8185587791629988      9.2823048794263645      7.6967499999999998
   132   1      3.9074087791629926      6.7678305314509819      7.6967499999999998
   133   2      3.0888499999999937      5.3500451369591158                  6.1574
   134   2      3.0888499999999937      8.9167418949318602      7.6967499999999998
   135   2      6.1776999999999864      7.1333935159454871      7.6967499999999998
   136   1      2.4559749057299949      10.700090273918232                       0
   137   1     -1.2279874528649974        12.8270269333375                       0
   138   1       1.860862547134996      13.923198751458079                       0
   139   1      4.5405824416739895      10.700090273918232                 1.53935
   140   1     -2.2702912208369947       14.63235001638548                 1.53935
   141   1      0.8185587791629988      12.117875668410099                 1.53935
   142   2                       0      10.700090273918232                       0
   143   2 -3.3719323629573925e-17      14.266787031890974                 1.53935
   144   2      3.0888499999999932      12.483438652904603                 1.53935
   145   1      2.4559749057299949      10.700090273918232                  3.0787
   146   1     -1.2279874528649974        12.8270269333375                  3.0787
   147   1       1.860862547134996      13.923198751458079                  3.0787
   148   1      4.5405824416739895      10.700090273918232      4.6180500000000002
   149   1     -2.2702912208369947       14.63235001638548      4.6180500000000002
   150   1      0.8185587791629988      12.117875668410099      4.6180500000000002
   151   2                       0      10.700090273918232                  3.0787
   152   2 -3.3719323629573925e-17      14.266787031890974      4.6180500000000002
   153   2      3.0888499999999932      12.483438652904603      4.6180500000000002
   154   1      2.4559749057299949      10.700090273918232                  6.1574
   155   1     -1.2279874528649974        12.8270269333375                  6.1574
   156   1       1.860862547134996      13.923198751458079                  6.1574
   157   1      4.5405824416739895      10.700090273918232      7.6967499999999998
   158   1     -2.2702912208369947       14.63235001638548      7.6967499999999998
   159   1      0.8185587791629988      12.117875668410099      7.6967499999999998
   160   2                       0      10.700090273918232                  6.1574
   161   2 -3.3719323629573925e-17      14.266787031890974      7.6967499999999998
   162   2      3.0888499999999932      12.483438652904603      7.6967499999999998
   163   1       14.81137490572997 -9.4939070925855407e-16                       0
   164   1      11.127412547134977      2.1269366594192665                       0
   165   1      14.216262547134971      3.2231084775398471                       0
   166   1      16.895982441673961 -1.0830114595043636e-15                 1.53935
   167   1      10.085108779162979      3.9322597424672487                 1.53935
   168   1      13.173958779162973      1.4177853944918655                 1.53935
   169   2      12.355399999999975 -7.9196577251144825e-16                       0
   170   2      12.355399999999975      3.5666967579727427                 1.53935
   171   2      15.444249999999968      1.7833483789863709                 1.53935
   172   1       14.81137490572997 -9.4939070925855407e-16                  3.0787
   173   1      11.127412547134977      2.1269366594192665                  3.0787
   174   1      14.216262547134971      3.2231084775398471                  3.0787
   175   1      16.895982441673961 -1.0830114595043636e-15      4.6180500000000002
   176   1      10.085108779162979      3.9322597424672487      4.6180500000000002
   177   1      13.173958779162973      1.4177853944918655      4.6180500000000002
   178   2      12.355399999999975 -7.9196577251144825e-16                  3.0787
   179   2      12.355399999999975      3.5666967579727427      4.6180500000000002
   180   2      15.444249999999968      1.7833483789863709      4.6180500000000002
   181   1       14.81137490572997 -9.4939070925855407e-16                  6.1574
   182   1      11.127412547134977      2.1269366594192665                  6.1574
   183   1      14.216262547134971      3.2231084775398471                  6.1574
   184   1      16.895982441673961 -1.0830114595043636e-15      7.6967499999999998
   185   1      10.085108779162979      3.9322597424672487      7.6967499999999998
   186   1      13.173958779162973      1.4177853944918655      7.6967499999999998
   187   2      12.355399999999975 -7.9196577251144825e-16                  6.1574
   188   2      12.355399999999975      3.5666967579727427      7.6967499999999998
   189   2      15.444249999999968      1.7833483789863709      7.6967499999999998
   190   1      11.722524905729976      5.3500451369591149                       0
   191   1      8.0385625471349833      7.4769817963783822                       0
   192   1      11.127412547134977      8.5731536144989633                       0
   193   1      13.807132441673971      5.3500451369591149                 1.53935
   194   1      6.9962587791629867      9.2823048794263645                 1.53935
   195   1      10.085108779162979       6.767830531450981                 1.53935
   196   2       9.266549999999981      5.3500451369591149                       0
   197   2       9.266549999999981      8.9167418949318602                 1.53935
   198   2      12.355399999999975      7.1333935159454862                 1.53935
   199   1      11.722524905729976      5.3500451369591149                  3.0787
   200   1      8.0385625471349833      7.4769817963783822                  3.0787
   201   1      11.127412547134977      8.5731536144989633                  3.0787
   202   1      13.807132441673971      5.3500451369591149      4.6180500000000002
   203   1      6.9962587791629867      9.2823048794263645      4.6180500000000002
   204   1      10.085108779162979       6.767830531450981      4.6180500000000002
   205   2       9.266549999999981      5.3500451369591149                  3.0787
   206   2       9.266549999999981      8.9167418949318602      4.6180500000000002
   207   2      12.355399999999975      7.1333935159454862      4.6180500000000002
   208   1      11.722524905729976      5.3500451369591149                  6.1574
   209   1      8.0385625471349833      7.4769817963783822                  6.1574
   210   1      11.127412547134977      8.5731536144989633                  6.1574
   211   1      13.807132441673971      5.3500451369591149      7.6967499999999998
   212   1      6.9962587791629867      9.2823048794263645      7.6967499999999998
   213   1      10.085108779162979       6.767830531450981      7.6967499999999998
   214   2       9.266549999999981      5.3500451369591149                  6.1574
   215   2       9.266549999999981      8.9167418949318602      7.6967499999999998
   216   2      12.355399999999975      7.1333935159454862      7.6967499999999998
   217   1      8.6336749057299809      10.700090273918232                       0
   218   1      4.9497125471349896        12.8270269333375                       0
   219   1      8.0385625471349833      13.923198751458079                       0
   220   1      10.718282441673976      10.700090273918232                 1.53935
   221   1      3.9074087791629926       14.63235001638548                 1.53935
   222   1      6.9962587791629867      12.117875668410099                 1.53935
   223   2      6.1776999999999873      10.700090273918232                       0
   224   2      6.1776999999999873      14.266787031890974                 1.53935
   225   2      9.2665499999999792      12.483438652904603                 1.53935
   226   1      8.6336749057299809      10.700090273918232                  3.0787
   227   1      4.9497125471349896        12.8270269333375                  3.0787
   228   1      8.0385625471349833      13.923198751458079                  3.0787
   229   1      10.718282441673976      10.700090273918232      4.6180500000000002
   230   1      3.9074087791629926       14.63235001638548      4.6180500000000002
   231   1      6.9962587791629867      12.117875668410099      4.6180500000000002
   232   2      6.1776999999999873      10.700090273918232                  3.0787
   233   2      6.1776999999999873      14.266787031890974      4.6180500000000002
   234   2      9.2665499999999792      12.483438652904603      4.6180500000000002
   235   1      8.6336749057299809      10.700090273918232                  6.1574
   236   1      4.9497125471349896        12.8270269333375                  6.1574
   237   1      8.0385625471349833      13.923198751458079                  6.1574
   238   1      10.718282441673976      10.700090273918232      7.6967499999999998
   239   1      3.9074087791629926       14.63235001638548      7.6967499999999998
   240   1      6.9962587791629867      12.117875668410099      7.6967499999999998
   241   2      6.1776999999999873      10.700090273918232                  6.1574
   242   2      6.1776999999999873      14.266787031890974      7.6967499999999998
   243   2      9.2665499999999792      12.483438652904603      7.6967499999999998
