(written by ASE)

27 atoms
1 atom types

0.0      11.132689163001004  xlo xhi
0.0      9.6411916275945888  ylo yhi
0.0      9.0898026381214692  zlo zhi
     5.5663445815005019      5.5663445815005019      3.2137305425315299  xy xz yz

Masses

     1      39.947999989723606 # Ar

Atoms # atomic

     1   1                       0                       0                       0
     2   1       1.855448193833501      1.0712435141771766      3.0299342127071558
     3   1       3.710896387667002      2.1424870283543531      6.0598684254143116
     4   1       1.855448193833501      3.2137305425315299 -2.2204460492503131e-16
     5   1       3.710896387667002      4.2849740567087062      3.0299342127071549
     6   1      5.5663445815005028      5.3562175708858817      6.0598684254143107
     7   1       3.710896387667002      6.4274610850630598 -4.4408920985006262e-16
     8   1      5.5663445815005028      7.4987045992402361      3.0299342127071549
     9   1      7.4217927753340041      8.5699481134174125      6.0598684254143098
    10   1       3.710896387667002                       0                       0
    11   1      5.5663445815005028      1.0712435141771766      3.0299342127071558
    12   1      7.4217927753340041      2.1424870283543536      6.0598684254143107
    13   1      5.5663445815005028      3.2137305425315299                       0
    14   1      7.4217927753340041      4.2849740567087062      3.0299342127071558
    15   1      9.2772409691675044      5.3562175708858826      6.0598684254143098
    16   1      7.4217927753340041      6.4274610850630598 -8.8817841970012523e-16
    17   1      9.2772409691675044      7.4987045992402344      3.0299342127071549
    18   1      11.132689163001006      8.5699481134174125      6.0598684254143107
    19   1      7.4217927753340041                       0                       0
    20   1      9.2772409691675044      1.0712435141771768      3.0299342127071558
    21   1      11.132689163001006      2.1424870283543531      6.0598684254143116
    22   1      9.2772409691675044      3.2137305425315295                       0
    23   1      11.132689163001006      4.2849740567087062      3.0299342127071549
    24   1      12.988137356834507      5.3562175708858817      6.0598684254143107
    25   1      11.132689163001006      6.4274610850630598                       0
    26   1      12.988137356834507      7.4987045992402361       3.029934212707154
    27   1      14.843585550668008      8.5699481134174125      6.0598684254143116
