(written by ASE)

1 atoms
1 atom types

0.0        2.64637816492727  xlo xhi
0.0      2.2918451703604803  ylo yhi
0.0      2.1607637672355997  zlo zhi
       1.32321685037401        1.32312052488942     0.76390972951663694  xy xz yz

Masses

     1      196.96656894933136 # Au

Atoms # atomic

     1   1      5.2861963974770267       3.050036899111233      2.1554156908457811
