(written by ASE)

6 atoms
2 atom types

0.0       4.502195929870668  xlo xhi
0.0      4.4998435629264044  ylo yhi
0.0         3.0015724679456  zlo zhi

Atoms # atomic

     1   1      1.3530983893763819      1.3557207947847569      3.0070973884956849
     2   1      3.1223075475229742      3.1245449683732147       3.007180712403255
     3   1      0.8746690193115243      3.6036568855131015      1.5114940350350614
     4   1      3.6011655219070522     0.87646843046333278      1.5115635930180045
     5   2       4.492062685942499      4.4918706548715237      3.0071017044770061
     6   2      2.2376828784044647       2.240143719266531      1.5114751400482023
