(written by ASE)

162 atoms
2 atom types

0.0      13.479899999999999  xlo xhi
0.0      13.479899999999999  ylo yhi
0.0      9.0260999999999996  zlo zhi

Masses

     1      15.998999995884349 # O
     2      47.866999987686484 # Ti

Atoms # charge

     1   1   0.0      1.3627641501319998      1.3627641501319998                       0
     2   1   0.0          3.130535849868          3.130535849868                       0
     3   1   0.0     0.88388584986800001      3.6094141501319994      1.5043499999999999
     4   1   0.0      3.6094141501319994     0.88388584986800001      1.5043499999999999
     5   2   0.0                       0                       0                       0
     6   2   0.0      2.2466499999999998      2.2466499999999998      1.5043499999999999
     7   1   0.0      1.3627641501319998      1.3627641501319998      3.0086999999999997
     8   1   0.0          3.130535849868          3.130535849868      3.0086999999999997
     9   1   0.0     0.88388584986800001      3.6094141501319994      4.5130499999999998
    10   1   0.0      3.6094141501319994     0.88388584986800001      4.5130499999999998
    11   2   0.0                       0                       0      3.0086999999999997
    12   2   0.0      2.2466499999999998      2.2466499999999998      4.5130499999999998
    13   1   0.0      1.3627641501319998      1.3627641501319998      6.0173999999999994
    14   1   0.0          3.130535849868          3.130535849868      6.0173999999999994
    15   1   0.0     0.88388584986800001      3.6094141501319994       7.521749999999999
    16   1   0.0      3.6094141501319994     0.88388584986800001       7.521749999999999
    17   2   0.0                       0                       0      6.0173999999999994
    18   2   0.0      2.2466499999999998      2.2466499999999998       7.521749999999999
    19   1   0.0      1.3627641501319998      5.8560641501319992                       0
    20   1   0.0          3.130535849868      7.6238358498679997                       0
    21   1   0.0     0.88388584986800001      8.1027141501319981      1.5043499999999999
    22   1   0.0      3.6094141501319994      5.3771858498679999      1.5043499999999999
    23   2   0.0                       0      4.4932999999999996                       0
    24   2   0.0      2.2466499999999998      6.7399499999999994      1.5043499999999999
    25   1   0.0      1.3627641501319998      5.8560641501319992      3.0086999999999997
    26   1   0.0          3.130535849868      7.6238358498679997      3.0086999999999997
    27   1   0.0     0.88388584986800001      8.1027141501319981      4.5130499999999998
    28   1   0.0      3.6094141501319994      5.3771858498679999      4.5130499999999998
    29   2   0.0                       0      4.4932999999999996      3.0086999999999997
    30   2   0.0      2.2466499999999998      6.7399499999999994      4.5130499999999998
    31   1   0.0      1.3627641501319998      5.8560641501319992      6.0173999999999994
    32   1   0.0          3.130535849868      7.6238358498679997      6.0173999999999994
    33   1   0.0     0.88388584986800001      8.1027141501319981       7.521749999999999
    34   1   0.0      3.6094141501319994      5.3771858498679999       7.521749999999999
    35   2   0.0                       0      4.4932999999999996      6.0173999999999994
    36   2   0.0      2.2466499999999998      6.7399499999999994       7.521749999999999
    37   1   0.0      1.3627641501319998      10.349364150131999                       0
    38   1   0.0          3.130535849868      12.117135849867999                       0
    39   1   0.0     0.88388584986800001         12.596014150132      1.5043499999999999
    40   1   0.0      3.6094141501319994      9.8704858498679986      1.5043499999999999
    41   2   0.0                       0      8.9865999999999993                       0
    42   2   0.0      2.2466499999999998      11.233249999999998      1.5043499999999999
    43   1   0.0      1.3627641501319998      10.349364150131999      3.0086999999999997
    44   1   0.0          3.130535849868      12.117135849867999      3.0086999999999997
    45   1   0.0     0.88388584986800001         12.596014150132      4.5130499999999998
    46   1   0.0      3.6094141501319994      9.8704858498679986      4.5130499999999998
    47   2   0.0                       0      8.9865999999999993      3.0086999999999997
    48   2   0.0      2.2466499999999998      11.233249999999998      4.5130499999999998
    49   1   0.0      1.3627641501319998      10.349364150131999      6.0173999999999994
    50   1   0.0          3.130535849868      12.117135849867999      6.0173999999999994
    51   1   0.0     0.88388584986800001         12.596014150132       7.521749999999999
    52   1   0.0      3.6094141501319994      9.8704858498679986       7.521749999999999
    53   2   0.0                       0      8.9865999999999993      6.0173999999999994
    54   2   0.0      2.2466499999999998      11.233249999999998       7.521749999999999
    55   1   0.0      5.8560641501319992      1.3627641501319998                       0
    56   1   0.0      7.6238358498679997          3.130535849868                       0
    57   1   0.0      5.3771858498679999      3.6094141501319994      1.5043499999999999
    58   1   0.0      8.1027141501319981     0.88388584986800001      1.5043499999999999
    59   2   0.0      4.4932999999999996                       0                       0
    60   2   0.0      6.7399499999999994      2.2466499999999998      1.5043499999999999
    61   1   0.0      5.8560641501319992      1.3627641501319998      3.0086999999999997
    62   1   0.0      7.6238358498679997          3.130535849868      3.0086999999999997
    63   1   0.0      5.3771858498679999      3.6094141501319994      4.5130499999999998
    64   1   0.0      8.1027141501319981     0.88388584986800001      4.5130499999999998
    65   2   0.0      4.4932999999999996                       0      3.0086999999999997
    66   2   0.0      6.7399499999999994      2.2466499999999998      4.5130499999999998
    67   1   0.0      5.8560641501319992      1.3627641501319998      6.0173999999999994
    68   1   0.0      7.6238358498679997          3.130535849868      6.0173999999999994
    69   1   0.0      5.3771858498679999      3.6094141501319994       7.521749999999999
    70   1   0.0      8.1027141501319981     0.88388584986800001       7.521749999999999
    71   2   0.0      4.4932999999999996                       0      6.0173999999999994
    72   2   0.0      6.7399499999999994      2.2466499999999998       7.521749999999999
    73   1   0.0      5.8560641501319992      5.8560641501319992                       0
    74   1   0.0      7.6238358498679997      7.6238358498679997                       0
    75   1   0.0      5.3771858498679999      8.1027141501319981      1.5043499999999999
    76   1   0.0      8.1027141501319981      5.3771858498679999      1.5043499999999999
    77   2   0.0      4.4932999999999996      4.4932999999999996                       0
    78   2   0.0      6.7399499999999994      6.7399499999999994      1.5043499999999999
    79   1   0.0      5.8560641501319992      5.8560641501319992      3.0086999999999997
    80   1   0.0      7.6238358498679997      7.6238358498679997      3.0086999999999997
    81   1   0.0      5.3771858498679999      8.1027141501319981      4.5130499999999998
    82   1   0.0      8.1027141501319981      5.3771858498679999      4.5130499999999998
    83   2   0.0      4.4932999999999996      4.4932999999999996      3.0086999999999997
    84   2   0.0      6.7399499999999994      6.7399499999999994      4.5130499999999998
    85   1   0.0      5.8560641501319992      5.8560641501319992      6.0173999999999994
    86   1   0.0      7.6238358498679997      7.6238358498679997      6.0173999999999994
    87   1   0.0      5.3771858498679999      8.1027141501319981       7.521749999999999
    88   1   0.0      8.1027141501319981      5.3771858498679999       7.521749999999999
    89   2   0.0      4.4932999999999996      4.4932999999999996      6.0173999999999994
    90   2   0.0      6.7399499999999994      6.7399499999999994       7.521749999999999
    91   1   0.0      5.8560641501319992      10.349364150131999                       0
    92   1   0.0      7.6238358498679997      12.117135849867999                       0
    93   1   0.0      5.3771858498679999         12.596014150132      1.5043499999999999
    94   1   0.0      8.1027141501319981      9.8704858498679986      1.5043499999999999
    95   2   0.0      4.4932999999999996      8.9865999999999993                       0
    96   2   0.0      6.7399499999999994      11.233249999999998      1.5043499999999999
    97   1   0.0      5.8560641501319992      10.349364150131999      3.0086999999999997
    98   1   0.0      7.6238358498679997      12.117135849867999      3.0086999999999997
    99   1   0.0      5.3771858498679999         12.596014150132      4.5130499999999998
   100   1   0.0      8.1027141501319981      9.8704858498679986      4.5130499999999998
   101   2   0.0      4.4932999999999996      8.9865999999999993      3.0086999999999997
   102   2   0.0      6.7399499999999994      11.233249999999998      4.5130499999999998
   103   1   0.0      5.8560641501319992      10.349364150131999      6.0173999999999994
   104   1   0.0      7.6238358498679997      12.117135849867999      6.0173999999999994
   105   1   0.0      5.3771858498679999         12.596014150132       7.521749999999999
   106   1   0.0      8.1027141501319981      9.8704858498679986       7.521749999999999
   107   2   0.0      4.4932999999999996      8.9865999999999993      6.0173999999999994
   108   2   0.0      6.7399499999999994      11.233249999999998       7.521749999999999
   109   1   0.0      10.349364150131999      1.3627641501319998                       0
   110   1   0.0      12.117135849867999          3.130535849868                       0
   111   1   0.0      9.8704858498679986      3.6094141501319994      1.5043499999999999
   112   1   0.0         12.596014150132     0.88388584986800001      1.5043499999999999
   113   2   0.0      8.9865999999999993                       0                       0
   114   2   0.0      11.233249999999998      2.2466499999999998      1.5043499999999999
   115   1   0.0      10.349364150131999      1.3627641501319998      3.0086999999999997
   116   1   0.0      12.117135849867999          3.130535849868      3.0086999999999997
   117   1   0.0      9.8704858498679986      3.6094141501319994      4.5130499999999998
   118   1   0.0         12.596014150132     0.88388584986800001      4.5130499999999998
   119   2   0.0      8.9865999999999993                       0      3.0086999999999997
   120   2   0.0      11.233249999999998      2.2466499999999998      4.5130499999999998
   121   1   0.0      10.349364150131999      1.3627641501319998      6.0173999999999994
   122   1   0.0      12.117135849867999          3.130535849868      6.0173999999999994
   123   1   0.0      9.8704858498679986      3.6094141501319994       7.521749999999999
   124   1   0.0         12.596014150132     0.88388584986800001       7.521749999999999
   125   2   0.0      8.9865999999999993                       0      6.0173999999999994
   126   2   0.0      11.233249999999998      2.2466499999999998       7.521749999999999
   127   1   0.0      10.349364150131999      5.8560641501319992                       0
   128   1   0.0      12.117135849867999      7.6238358498679997                       0
   129   1   0.0      9.8704858498679986      8.1027141501319981      1.5043499999999999
   130   1   0.0         12.596014150132      5.3771858498679999      1.5043499999999999
   131   2   0.0      8.9865999999999993      4.4932999999999996                       0
   132   2   0.0      11.233249999999998      6.7399499999999994      1.5043499999999999
   133   1   0.0      10.349364150131999      5.8560641501319992      3.0086999999999997
   134   1   0.0      12.117135849867999      7.6238358498679997      3.0086999999999997
   135   1   0.0      9.8704858498679986      8.1027141501319981      4.5130499999999998
   136   1   0.0         12.596014150132      5.3771858498679999      4.5130499999999998
   137   2   0.0      8.9865999999999993      4.4932999999999996      3.0086999999999997
   138   2   0.0      11.233249999999998      6.7399499999999994      4.5130499999999998
   139   1   0.0      10.349364150131999      5.8560641501319992      6.0173999999999994
   140   1   0.0      12.117135849867999      7.6238358498679997      6.0173999999999994
   141   1   0.0      9.8704858498679986      8.1027141501319981       7.521749999999999
   142   1   0.0         12.596014150132      5.3771858498679999       7.521749999999999
   143   2   0.0      8.9865999999999993      4.4932999999999996      6.0173999999999994
   144   2   0.0      11.233249999999998      6.7399499999999994       7.521749999999999
   145   1   0.0      10.349364150131999      10.349364150131999                       0
   146   1   0.0      12.117135849867999      12.117135849867999                       0
   147   1   0.0      9.8704858498679986         12.596014150132      1.5043499999999999
   148   1   0.0         12.596014150132      9.8704858498679986      1.5043499999999999
   149   2   0.0      8.9865999999999993      8.9865999999999993                       0
   150   2   0.0      11.233249999999998      11.233249999999998      1.5043499999999999
   151   1   0.0      10.349364150131999      10.349364150131999      3.0086999999999997
   152   1   0.0      12.117135849867999      12.117135849867999      3.0086999999999997
   153   1   0.0      9.8704858498679986         12.596014150132      4.5130499999999998
   154   1   0.0         12.596014150132      9.8704858498679986      4.5130499999999998
   155   2   0.0      8.9865999999999993      8.9865999999999993      3.0086999999999997
   156   2   0.0      11.233249999999998      11.233249999999998      4.5130499999999998
   157   1   0.0      10.349364150131999      10.349364150131999      6.0173999999999994
   158   1   0.0      12.117135849867999      12.117135849867999      6.0173999999999994
   159   1   0.0      9.8704858498679986         12.596014150132       7.521749999999999
   160   1   0.0         12.596014150132      9.8704858498679986       7.521749999999999
   161   2   0.0      8.9865999999999993      8.9865999999999993      6.0173999999999994
   162   2   0.0      11.233249999999998      11.233249999999998       7.521749999999999
