(written by ASE)

270 atoms
2 atom types

0.0      17.280000000000001  xlo xhi
0.0      17.279999999999998  ylo yhi
0.0      10.677899999999999  zlo zhi

Masses

     1      95.949999975317411 # Mo
     2      58.693399984901454 # Ni

Atoms # atomic

     1   1                       0                       0                       0
     2   1      2.8799999999999999      2.8799999999999999                 1.77965
     3   2       2.321901100799999      4.6074936959999997                       0
     4   2      3.4380988992000008      1.1525063039999999                       0
     5   2      1.1525063040000001       2.321901100799999                       0
     6   2      4.6074936959999997      3.4380988992000008                       0
     7   2      5.2019011007999989      1.7274936959999998                 1.77965
     8   2     0.55809889920000089             4.032506304                 1.77965
     9   2             4.032506304      5.2019011007999989                 1.77965
    10   2             1.727493696     0.55809889920000089                 1.77965
    11   1                       0  8.8817841970012513e-16      3.5592999999999999
    12   1      2.8799999999999999      2.8800000000000008      5.3389499999999996
    13   2       2.321901100799999      4.6074936960000006      3.5592999999999999
    14   2      3.4380988992000008      1.1525063040000008      3.5592999999999999
    15   2      1.1525063040000001      2.3219011007999999      3.5592999999999999
    16   2      4.6074936959999997      3.4380988992000017      3.5592999999999999
    17   2      5.2019011007999989      1.7274936960000007      5.3389499999999996
    18   2     0.55809889920000089      4.0325063040000009      5.3389499999999996
    19   2             4.032506304      5.2019011007999998      5.3389499999999996
    20   2             1.727493696     0.55809889920000177      5.3389499999999996
    21   1                       0  1.7763568394002503e-15      7.1185999999999998
    22   1      2.8799999999999999      2.8800000000000017      8.8982499999999991
    23   2       2.321901100799999      4.6074936960000015      7.1185999999999998
    24   2      3.4380988992000008      1.1525063040000016      7.1185999999999998
    25   2      1.1525063040000001      2.3219011008000008      7.1185999999999998
    26   2      4.6074936959999997      3.4380988992000026      7.1185999999999998
    27   2      5.2019011007999989      1.7274936960000016      8.8982499999999991
    28   2     0.55809889920000089      4.0325063040000018      8.8982499999999991
    29   2             4.032506304      5.2019011008000007      8.8982499999999991
    30   2             1.727493696     0.55809889920000266      8.8982499999999991
    31   1                       0      5.7599999999999989                       0
    32   1      2.8799999999999999      8.6399999999999988                 1.77965
    33   2       2.321901100799999      10.367493695999999                       0
    34   2      3.4380988992000008       6.912506303999999                       0
    35   2      1.1525063040000001      8.0819011007999979                       0
    36   2      4.6074936959999997      9.1980988991999997                       0
    37   2      5.2019011007999989      7.4874936959999987                 1.77965
    38   2     0.55809889920000089      9.7925063039999998                 1.77965
    39   2             4.032506304      10.961901100799999                 1.77965
    40   2             1.727493696      6.3180988991999998                 1.77965
    41   1                       0      5.7599999999999998      3.5592999999999999
    42   1      2.8799999999999999      8.6400000000000006      5.3389499999999996
    43   2       2.321901100799999            10.367493696      3.5592999999999999
    44   2      3.4380988992000008      6.9125063039999999      3.5592999999999999
    45   2      1.1525063040000001      8.0819011007999997      3.5592999999999999
    46   2      4.6074936959999997      9.1980988992000015      3.5592999999999999
    47   2      5.2019011007999989      7.4874936959999996      5.3389499999999996
    48   2     0.55809889920000089      9.7925063039999998      5.3389499999999996
    49   2             4.032506304      10.961901100799999      5.3389499999999996
    50   2             1.727493696      6.3180988992000007      5.3389499999999996
    51   1                       0      5.7600000000000007      7.1185999999999998
    52   1      2.8799999999999999      8.6400000000000006      8.8982499999999991
    53   2       2.321901100799999            10.367493696      7.1185999999999998
    54   2      3.4380988992000008      6.9125063040000008      7.1185999999999998
    55   2      1.1525063040000001      8.0819011007999997      7.1185999999999998
    56   2      4.6074936959999997      9.1980988992000015      7.1185999999999998
    57   2      5.2019011007999989      7.4874936960000005      8.8982499999999991
    58   2     0.55809889920000089      9.7925063039999998      8.8982499999999991
    59   2             4.032506304      10.961901100799999      8.8982499999999991
    60   2             1.727493696      6.3180988992000016      8.8982499999999991
    61   1                       0      11.519999999999998                       0
    62   1      2.8799999999999999      14.399999999999999                 1.77965
    63   2       2.321901100799999      16.127493695999998                       0
    64   2      3.4380988992000008      12.672506303999997                       0
    65   2      1.1525063040000001      13.841901100799998                       0
    66   2      4.6074936959999997      14.958098899199999                       0
    67   2      5.2019011007999989      13.247493695999998                 1.77965
    68   2     0.55809889920000089      15.552506303999998                 1.77965
    69   2             4.032506304      16.721901100799997                 1.77965
    70   2             1.727493696      12.078098899199999                 1.77965
    71   1                       0      11.519999999999998      3.5592999999999999
    72   1      2.8799999999999999      14.399999999999999      5.3389499999999996
    73   2       2.321901100799999      16.127493695999998      3.5592999999999999
    74   2      3.4380988992000008      12.672506303999997      3.5592999999999999
    75   2      1.1525063040000001      13.841901100799998      3.5592999999999999
    76   2      4.6074936959999997      14.958098899199999      3.5592999999999999
    77   2      5.2019011007999989      13.247493695999998      5.3389499999999996
    78   2     0.55809889920000089      15.552506303999998      5.3389499999999996
    79   2             4.032506304      16.721901100799997      5.3389499999999996
    80   2             1.727493696      12.078098899199999      5.3389499999999996
    81   1                       0                   11.52      7.1185999999999998
    82   1      2.8799999999999999      14.399999999999999      8.8982499999999991
    83   2       2.321901100799999      16.127493695999998      7.1185999999999998
    84   2      3.4380988992000008      12.672506303999999      7.1185999999999998
    85   2      1.1525063040000001      13.841901100799998      7.1185999999999998
    86   2      4.6074936959999997      14.958098899199999      7.1185999999999998
    87   2      5.2019011007999989      13.247493695999999      8.8982499999999991
    88   2     0.55809889920000089            15.552506304      8.8982499999999991
    89   2             4.032506304      16.721901100799997      8.8982499999999991
    90   2             1.727493696           12.0780988992      8.8982499999999991
    91   1      5.7599999999999998                       0                       0
    92   1      8.6400000000000006      2.8799999999999999                 1.77965
    93   2      8.0819011007999997      4.6074936959999997                       0
    94   2      9.1980988992000015      1.1525063039999999                       0
    95   2      6.9125063039999999       2.321901100799999                       0
    96   2            10.367493696      3.4380988992000008                       0
    97   2      10.961901100799999      1.7274936959999998                 1.77965
    98   2      6.3180988992000007             4.032506304                 1.77965
    99   2      9.7925063039999998      5.2019011007999989                 1.77965
   100   2      7.4874936959999996     0.55809889920000089                 1.77965
   101   1      5.7599999999999998  8.8817841970012513e-16      3.5592999999999999
   102   1      8.6400000000000006      2.8800000000000008      5.3389499999999996
   103   2      8.0819011007999997      4.6074936960000006      3.5592999999999999
   104   2      9.1980988992000015      1.1525063040000008      3.5592999999999999
   105   2      6.9125063039999999      2.3219011007999999      3.5592999999999999
   106   2            10.367493696      3.4380988992000017      3.5592999999999999
   107   2      10.961901100799999      1.7274936960000007      5.3389499999999996
   108   2      6.3180988992000007      4.0325063040000009      5.3389499999999996
   109   2      9.7925063039999998      5.2019011007999998      5.3389499999999996
   110   2      7.4874936959999996     0.55809889920000177      5.3389499999999996
   111   1      5.7599999999999998  1.7763568394002503e-15      7.1185999999999998
   112   1      8.6400000000000006      2.8800000000000017      8.8982499999999991
   113   2      8.0819011007999997      4.6074936960000015      7.1185999999999998
   114   2      9.1980988992000015      1.1525063040000016      7.1185999999999998
   115   2      6.9125063039999999      2.3219011008000008      7.1185999999999998
   116   2            10.367493696      3.4380988992000026      7.1185999999999998
   117   2      10.961901100799999      1.7274936960000016      8.8982499999999991
   118   2      6.3180988992000007      4.0325063040000018      8.8982499999999991
   119   2      9.7925063039999998      5.2019011008000007      8.8982499999999991
   120   2      7.4874936959999996     0.55809889920000266      8.8982499999999991
   121   1      5.7599999999999998      5.7599999999999989                       0
   122   1      8.6400000000000006      8.6399999999999988                 1.77965
   123   2      8.0819011007999997      10.367493695999999                       0
   124   2      9.1980988992000015       6.912506303999999                       0
   125   2      6.9125063039999999      8.0819011007999979                       0
   126   2            10.367493696      9.1980988991999997                       0
   127   2      10.961901100799999      7.4874936959999987                 1.77965
   128   2      6.3180988992000007      9.7925063039999998                 1.77965
   129   2      9.7925063039999998      10.961901100799999                 1.77965
   130   2      7.4874936959999996      6.3180988991999998                 1.77965
   131   1      5.7599999999999998      5.7599999999999998      3.5592999999999999
   132   1      8.6400000000000006      8.6400000000000006      5.3389499999999996
   133   2      8.0819011007999997            10.367493696      3.5592999999999999
   134   2      9.1980988992000015      6.9125063039999999      3.5592999999999999
   135   2      6.9125063039999999      8.0819011007999997      3.5592999999999999
   136   2            10.367493696      9.1980988992000015      3.5592999999999999
   137   2      10.961901100799999      7.4874936959999996      5.3389499999999996
   138   2      6.3180988992000007      9.7925063039999998      5.3389499999999996
   139   2      9.7925063039999998      10.961901100799999      5.3389499999999996
   140   2      7.4874936959999996      6.3180988992000007      5.3389499999999996
   141   1      5.7599999999999998      5.7600000000000007      7.1185999999999998
   142   1      8.6400000000000006      8.6400000000000006      8.8982499999999991
   143   2      8.0819011007999997            10.367493696      7.1185999999999998
   144   2      9.1980988992000015      6.9125063040000008      7.1185999999999998
   145   2      6.9125063039999999      8.0819011007999997      7.1185999999999998
   146   2            10.367493696      9.1980988992000015      7.1185999999999998
   147   2      10.961901100799999      7.4874936960000005      8.8982499999999991
   148   2      6.3180988992000007      9.7925063039999998      8.8982499999999991
   149   2      9.7925063039999998      10.961901100799999      8.8982499999999991
   150   2      7.4874936959999996      6.3180988992000016      8.8982499999999991
   151   1      5.7599999999999998      11.519999999999998                       0
   152   1      8.6400000000000006      14.399999999999999                 1.77965
   153   2      8.0819011007999997      16.127493695999998                       0
   154   2      9.1980988992000015      12.672506303999997                       0
   155   2      6.9125063039999999      13.841901100799998                       0
   156   2            10.367493696      14.958098899199999                       0
   157   2      10.961901100799999      13.247493695999998                 1.77965
   158   2      6.3180988992000007      15.552506303999998                 1.77965
   159   2      9.7925063039999998      16.721901100799997                 1.77965
   160   2      7.4874936959999996      12.078098899199999                 1.77965
   161   1      5.7599999999999998      11.519999999999998      3.5592999999999999
   162   1      8.6400000000000006      14.399999999999999      5.3389499999999996
   163   2      8.0819011007999997      16.127493695999998      3.5592999999999999
   164   2      9.1980988992000015      12.672506303999997      3.5592999999999999
   165   2      6.9125063039999999      13.841901100799998      3.5592999999999999
   166   2            10.367493696      14.958098899199999      3.5592999999999999
   167   2      10.961901100799999      13.247493695999998      5.3389499999999996
   168   2      6.3180988992000007      15.552506303999998      5.3389499999999996
   169   2      9.7925063039999998      16.721901100799997      5.3389499999999996
   170   2      7.4874936959999996      12.078098899199999      5.3389499999999996
   171   1      5.7599999999999998                   11.52      7.1185999999999998
   172   1      8.6400000000000006      14.399999999999999      8.8982499999999991
   173   2      8.0819011007999997      16.127493695999998      7.1185999999999998
   174   2      9.1980988992000015      12.672506303999999      7.1185999999999998
   175   2      6.9125063039999999      13.841901100799998      7.1185999999999998
   176   2            10.367493696      14.958098899199999      7.1185999999999998
   177   2      10.961901100799999      13.247493695999999      8.8982499999999991
   178   2      6.3180988992000007            15.552506304      8.8982499999999991
   179   2      9.7925063039999998      16.721901100799997      8.8982499999999991
   180   2      7.4874936959999996           12.0780988992      8.8982499999999991
   181   1                   11.52                       0                       0
   182   1      14.399999999999999      2.8799999999999999                 1.77965
   183   2      13.841901100799998      4.6074936959999997                       0
   184   2      14.958098899199999      1.1525063039999999                       0
   185   2      12.672506303999999       2.321901100799999                       0
   186   2      16.127493695999998      3.4380988992000008                       0
   187   2      16.721901100799997      1.7274936959999998                 1.77965
   188   2           12.0780988992             4.032506304                 1.77965
   189   2            15.552506304      5.2019011007999989                 1.77965
   190   2      13.247493695999999     0.55809889920000089                 1.77965
   191   1                   11.52  8.8817841970012513e-16      3.5592999999999999
   192   1      14.399999999999999      2.8800000000000008      5.3389499999999996
   193   2      13.841901100799998      4.6074936960000006      3.5592999999999999
   194   2      14.958098899199999      1.1525063040000008      3.5592999999999999
   195   2      12.672506303999999      2.3219011007999999      3.5592999999999999
   196   2      16.127493695999998      3.4380988992000017      3.5592999999999999
   197   2      16.721901100799997      1.7274936960000007      5.3389499999999996
   198   2           12.0780988992      4.0325063040000009      5.3389499999999996
   199   2            15.552506304      5.2019011007999998      5.3389499999999996
   200   2      13.247493695999999     0.55809889920000177      5.3389499999999996
   201   1                   11.52  1.7763568394002503e-15      7.1185999999999998
   202   1      14.399999999999999      2.8800000000000017      8.8982499999999991
   203   2      13.841901100799998      4.6074936960000015      7.1185999999999998
   204   2      14.958098899199999      1.1525063040000016      7.1185999999999998
   205   2      12.672506303999999      2.3219011008000008      7.1185999999999998
   206   2      16.127493695999998      3.4380988992000026      7.1185999999999998
   207   2      16.721901100799997      1.7274936960000016      8.8982499999999991
   208   2           12.0780988992      4.0325063040000018      8.8982499999999991
   209   2            15.552506304      5.2019011008000007      8.8982499999999991
   210   2      13.247493695999999     0.55809889920000266      8.8982499999999991
   211   1                   11.52      5.7599999999999989                       0
   212   1      14.399999999999999      8.6399999999999988                 1.77965
   213   2      13.841901100799998      10.367493695999999                       0
   214   2      14.958098899199999       6.912506303999999                       0
   215   2      12.672506303999999      8.0819011007999979                       0
   216   2      16.127493695999998      9.1980988991999997                       0
   217   2      16.721901100799997      7.4874936959999987                 1.77965
   218   2           12.0780988992      9.7925063039999998                 1.77965
   219   2            15.552506304      10.961901100799999                 1.77965
   220   2      13.247493695999999      6.3180988991999998                 1.77965
   221   1                   11.52      5.7599999999999998      3.5592999999999999
   222   1      14.399999999999999      8.6400000000000006      5.3389499999999996
   223   2      13.841901100799998            10.367493696      3.5592999999999999
   224   2      14.958098899199999      6.9125063039999999      3.5592999999999999
   225   2      12.672506303999999      8.0819011007999997      3.5592999999999999
   226   2      16.127493695999998      9.1980988992000015      3.5592999999999999
   227   2      16.721901100799997      7.4874936959999996      5.3389499999999996
   228   2           12.0780988992      9.7925063039999998      5.3389499999999996
   229   2            15.552506304      10.961901100799999      5.3389499999999996
   230   2      13.247493695999999      6.3180988992000007      5.3389499999999996
   231   1                   11.52      5.7600000000000007      7.1185999999999998
   232   1      14.399999999999999      8.6400000000000006      8.8982499999999991
   233   2      13.841901100799998            10.367493696      7.1185999999999998
   234   2      14.958098899199999      6.9125063040000008      7.1185999999999998
   235   2      12.672506303999999      8.0819011007999997      7.1185999999999998
   236   2      16.127493695999998      9.1980988992000015      7.1185999999999998
   237   2      16.721901100799997      7.4874936960000005      8.8982499999999991
   238   2           12.0780988992      9.7925063039999998      8.8982499999999991
   239   2            15.552506304      10.961901100799999      8.8982499999999991
   240   2      13.247493695999999      6.3180988992000016      8.8982499999999991
   241   1                   11.52      11.519999999999998                       0
   242   1      14.399999999999999      14.399999999999999                 1.77965
   243   2      13.841901100799998      16.127493695999998                       0
   244   2      14.958098899199999      12.672506303999997                       0
   245   2      12.672506303999999      13.841901100799998                       0
   246   2      16.127493695999998      14.958098899199999                       0
   247   2      16.721901100799997      13.247493695999998                 1.77965
   248   2           12.0780988992      15.552506303999998                 1.77965
   249   2            15.552506304      16.721901100799997                 1.77965
   250   2      13.247493695999999      12.078098899199999                 1.77965
   251   1                   11.52      11.519999999999998      3.5592999999999999
   252   1      14.399999999999999      14.399999999999999      5.3389499999999996
   253   2      13.841901100799998      16.127493695999998      3.5592999999999999
   254   2      14.958098899199999      12.672506303999997      3.5592999999999999
   255   2      12.672506303999999      13.841901100799998      3.5592999999999999
   256   2      16.127493695999998      14.958098899199999      3.5592999999999999
   257   2      16.721901100799997      13.247493695999998      5.3389499999999996
   258   2           12.0780988992      15.552506303999998      5.3389499999999996
   259   2            15.552506304      16.721901100799997      5.3389499999999996
   260   2      13.247493695999999      12.078098899199999      5.3389499999999996
   261   1                   11.52                   11.52      7.1185999999999998
   262   1      14.399999999999999      14.399999999999999      8.8982499999999991
   263   2      13.841901100799998      16.127493695999998      7.1185999999999998
   264   2      14.958098899199999      12.672506303999999      7.1185999999999998
   265   2      12.672506303999999      13.841901100799998      7.1185999999999998
   266   2      16.127493695999998      14.958098899199999      7.1185999999999998
   267   2      16.721901100799997      13.247493695999999      8.8982499999999991
   268   2           12.0780988992            15.552506304      8.8982499999999991
   269   2            15.552506304      16.721901100799997      8.8982499999999991
   270   2      13.247493695999999           12.0780988992      8.8982499999999991
