(written by ASE)

4 atoms
1 atom types

0.0      3.8661295940167357  xlo xhi
0.0       3.346227845873988  ylo yhi
0.0      6.2828736943830146  zlo zhi
    -1.9340488431956544  -0.0020347247110628166 -0.00039337929768967463  xy xz yz

Masses

     1      28.084999992775288 # Si

Atoms # atomic

     1   1   -0.035514478784586502      2.2002226576950323      3.5108210385371659
     2   1      1.8979419239044406      1.0849332629228525     0.37375345007249194
     3   1      1.8972639221797274      1.0843973465744352       2.737131694767593
     4   1   -0.035955942611520512      2.2003033636477545      5.8733994436155195
