(written by ASE)

4 atoms
1 atom types

0.0      3.8646423416036781  xlo xhi
0.0      3.3468051417010116  ylo yhi
0.0      6.2871314796240574  zlo zhi
     -1.932610206307722 -0.00028021546641252492 -0.00027006869537114911  xy xz yz

Masses

     1      28.084999992775288 # Si

Atoms # atomic

     1   1 -0.00053659020764932459      2.2310637350638634      3.5345551146493688
     2   1      1.9322666617031685      1.1153930418829299     0.39095426767357838
     3   1      1.9321763665347096      1.1155481531398259       2.752554915668886
     4   1 -0.00040259837119610299      2.2310652159246929      5.8961986612561743
