(written by ASE)

4 atoms
1 atom types

0.0      3.8646423416036781  xlo xhi
0.0      3.3468051417010116  ylo yhi
0.0      6.2871314796240574  zlo zhi
     -1.932610206307722 -0.00028021546641252492 -0.00027006869537114911  xy xz yz

Masses

     1      28.084999992775288 # Si

Atoms # atomic

     1   1    -0.11955790870247175      2.1251573195101852      3.4854418091354455
     2   1      1.8126299999390896      1.0100685831032605     0.34194377887992378
     3   1      1.8128053343137838      1.0097902506386101      2.7054738426407474
     4   1    -0.11944127748368552      2.1250151535480595      5.8490265821562852
