(written by ASE)

4 atoms
1 atom types

0.0      3.8661295940167357  xlo xhi
0.0       3.346227845873988  ylo yhi
0.0      6.2828736943830146  zlo zhi
    -1.9340488431956544  -0.0020347247110628166 -0.00039337929768967463  xy xz yz

Masses

     1      28.084999992775288 # Si

Atoms # atomic

     1   1  -0.0022550107331314241      2.2288607285100417      3.5328535627163604
     2   1       1.931525625618993      1.1165833063073425     0.38893185829181048
     3   1      1.9331475265789273       1.116185534751915      2.7513758398595352
     4   1   -0.002326089244751796       2.230039363583296      5.8925861278983351
