(written by ASE)

4 atoms
1 atom types

0.0      2.7209509957023137  xlo xhi
0.0      6.3692767205267771  ylo yhi
0.0      4.8729082654434892  zlo zhi

Atoms # atomic

     1   1      2.7189367732785565     0.60652804225624801      1.1990353017598654
     2   1      2.7186649626968711       5.797316836120288      3.6303139253932541
     3   1      1.3597701037682455      3.7944625123822067      1.1990443655027287
     4   1      1.3597441280729681      2.6093857271346219      3.6303733455699922
