(written by ASE)

108 atoms
1 atom types

0.0      8.1615000000000002  xlo xhi
0.0      19.142399999999995  ylo yhi
0.0      14.575199999999999  zlo zhi

Masses

     1      238.02890993876841 # U

Atoms # atomic

     1   1                       0      0.5902398754303998      1.2145999999999999
     2   1                       0      5.7905601245695992      3.6437999999999997
     3   1                 1.36025      3.7806398754303991      1.2145999999999999
     4   1                 1.36025      2.6001601245695998      3.6437999999999997
     5   1                       0      0.5902398754303998      6.0729999999999995
     6   1                       0      5.7905601245695992      8.5021999999999984
     7   1                 1.36025      3.7806398754303991      6.0729999999999995
     8   1                 1.36025      2.6001601245695998      8.5021999999999984
     9   1                       0      0.5902398754303998                 10.9314
    10   1                       0      5.7905601245695992      13.360599999999998
    11   1                 1.36025      3.7806398754303991                 10.9314
    12   1                 1.36025      2.6001601245695998      13.360599999999998
    13   1                       0      6.9710398754303986      1.2145999999999999
    14   1                       0      12.171360124569599      3.6437999999999997
    15   1                 1.36025      10.161439875430398      1.2145999999999999
    16   1                 1.36025      8.9809601245695987      3.6437999999999997
    17   1                       0      6.9710398754303986      6.0729999999999995
    18   1                       0      12.171360124569599      8.5021999999999984
    19   1                 1.36025      10.161439875430398      6.0729999999999995
    20   1                 1.36025      8.9809601245695987      8.5021999999999984
    21   1                       0      6.9710398754303986                 10.9314
    22   1                       0      12.171360124569599      13.360599999999998
    23   1                 1.36025      10.161439875430398                 10.9314
    24   1                 1.36025      8.9809601245695987      13.360599999999998
    25   1                       0      13.351839875430398      1.2145999999999999
    26   1                       0      18.552160124569596      3.6437999999999997
    27   1                 1.36025      16.542239875430397      1.2145999999999999
    28   1                 1.36025      15.361760124569598      3.6437999999999997
    29   1                       0      13.351839875430398      6.0729999999999995
    30   1                       0      18.552160124569596      8.5021999999999984
    31   1                 1.36025      16.542239875430397      6.0729999999999995
    32   1                 1.36025      15.361760124569598      8.5021999999999984
    33   1                       0      13.351839875430398                 10.9314
    34   1                       0      18.552160124569596      13.360599999999998
    35   1                 1.36025      16.542239875430397                 10.9314
    36   1                 1.36025      15.361760124569598      13.360599999999998
    37   1      2.7204999999999999      0.5902398754303998      1.2145999999999999
    38   1      2.7204999999999999      5.7905601245695992      3.6437999999999997
    39   1      4.0807500000000001      3.7806398754303991      1.2145999999999999
    40   1      4.0807500000000001      2.6001601245695998      3.6437999999999997
    41   1      2.7204999999999999      0.5902398754303998      6.0729999999999995
    42   1      2.7204999999999999      5.7905601245695992      8.5021999999999984
    43   1      4.0807500000000001      3.7806398754303991      6.0729999999999995
    44   1      4.0807500000000001      2.6001601245695998      8.5021999999999984
    45   1      2.7204999999999999      0.5902398754303998                 10.9314
    46   1      2.7204999999999999      5.7905601245695992      13.360599999999998
    47   1      4.0807500000000001      3.7806398754303991                 10.9314
    48   1      4.0807500000000001      2.6001601245695998      13.360599999999998
    49   1      2.7204999999999999      6.9710398754303986      1.2145999999999999
    50   1      2.7204999999999999      12.171360124569599      3.6437999999999997
    51   1      4.0807500000000001      10.161439875430398      1.2145999999999999
    52   1      4.0807500000000001      8.9809601245695987      3.6437999999999997
    53   1      2.7204999999999999      6.9710398754303986      6.0729999999999995
    54   1      2.7204999999999999      12.171360124569599      8.5021999999999984
    55   1      4.0807500000000001      10.161439875430398      6.0729999999999995
    56   1      4.0807500000000001      8.9809601245695987      8.5021999999999984
    57   1      2.7204999999999999      6.9710398754303986                 10.9314
    58   1      2.7204999999999999      12.171360124569599      13.360599999999998
    59   1      4.0807500000000001      10.161439875430398                 10.9314
    60   1      4.0807500000000001      8.9809601245695987      13.360599999999998
    61   1      2.7204999999999999      13.351839875430398      1.2145999999999999
    62   1      2.7204999999999999      18.552160124569596      3.6437999999999997
    63   1      4.0807500000000001      16.542239875430397      1.2145999999999999
    64   1      4.0807500000000001      15.361760124569598      3.6437999999999997
    65   1      2.7204999999999999      13.351839875430398      6.0729999999999995
    66   1      2.7204999999999999      18.552160124569596      8.5021999999999984
    67   1      4.0807500000000001      16.542239875430397      6.0729999999999995
    68   1      4.0807500000000001      15.361760124569598      8.5021999999999984
    69   1      2.7204999999999999      13.351839875430398                 10.9314
    70   1      2.7204999999999999      18.552160124569596      13.360599999999998
    71   1      4.0807500000000001      16.542239875430397                 10.9314
    72   1      4.0807500000000001      15.361760124569598      13.360599999999998
    73   1      5.4409999999999998      0.5902398754303998      1.2145999999999999
    74   1      5.4409999999999998      5.7905601245695992      3.6437999999999997
    75   1      6.8012499999999996      3.7806398754303991      1.2145999999999999
    76   1      6.8012499999999996      2.6001601245695998      3.6437999999999997
    77   1      5.4409999999999998      0.5902398754303998      6.0729999999999995
    78   1      5.4409999999999998      5.7905601245695992      8.5021999999999984
    79   1      6.8012499999999996      3.7806398754303991      6.0729999999999995
    80   1      6.8012499999999996      2.6001601245695998      8.5021999999999984
    81   1      5.4409999999999998      0.5902398754303998                 10.9314
    82   1      5.4409999999999998      5.7905601245695992      13.360599999999998
    83   1      6.8012499999999996      3.7806398754303991                 10.9314
    84   1      6.8012499999999996      2.6001601245695998      13.360599999999998
    85   1      5.4409999999999998      6.9710398754303986      1.2145999999999999
    86   1      5.4409999999999998      12.171360124569599      3.6437999999999997
    87   1      6.8012499999999996      10.161439875430398      1.2145999999999999
    88   1      6.8012499999999996      8.9809601245695987      3.6437999999999997
    89   1      5.4409999999999998      6.9710398754303986      6.0729999999999995
    90   1      5.4409999999999998      12.171360124569599      8.5021999999999984
    91   1      6.8012499999999996      10.161439875430398      6.0729999999999995
    92   1      6.8012499999999996      8.9809601245695987      8.5021999999999984
    93   1      5.4409999999999998      6.9710398754303986                 10.9314
    94   1      5.4409999999999998      12.171360124569599      13.360599999999998
    95   1      6.8012499999999996      10.161439875430398                 10.9314
    96   1      6.8012499999999996      8.9809601245695987      13.360599999999998
    97   1      5.4409999999999998      13.351839875430398      1.2145999999999999
    98   1      5.4409999999999998      18.552160124569596      3.6437999999999997
    99   1      6.8012499999999996      16.542239875430397      1.2145999999999999
   100   1      6.8012499999999996      15.361760124569598      3.6437999999999997
   101   1      5.4409999999999998      13.351839875430398      6.0729999999999995
   102   1      5.4409999999999998      18.552160124569596      8.5021999999999984
   103   1      6.8012499999999996      16.542239875430397      6.0729999999999995
   104   1      6.8012499999999996      15.361760124569598      8.5021999999999984
   105   1      5.4409999999999998      13.351839875430398                 10.9314
   106   1      5.4409999999999998      18.552160124569596      13.360599999999998
   107   1      6.8012499999999996      16.542239875430397                 10.9314
   108   1      6.8012499999999996      15.361760124569598      13.360599999999998
