(written by ASE)

9 atoms
2 atom types

0.0      5.9154584801424095  xlo xhi
0.0      5.1201071121710902  ylo yhi
0.0      3.3433420916863308  zlo zhi
      -2.95609521949175                       0                       0  xy xz yz

Atoms # atomic

     1   1      0.5150449043152262      5.1088477484197758      3.3317187194006093
     2   1      4.1574820925762159      3.0077898167196131      3.3324161743793046
     3   1      1.1973690219282489      2.0889354499958581      3.3324901509405578
     4   1     -1.4564070587617917      5.1094102923333731      1.6576388480275819
     5   1      5.1435990203077111      1.3006768691264134      1.6576321211593976
     6   1      2.1827287967862929      3.7961345624980019      1.6576989539709925
     7   2      2.9445104691257291      5.1090542746342846      3.3261940388520097
     8   2   -0.014766756627044695      3.4012517702004241      1.6574724811314892
     9   2      2.9402084003131046      1.6958728349937813      1.6578350316791648
