(written by ASE)

9 atoms
2 atom types

0.0       5.924225523005739  xlo xhi
0.0      5.1194794547714144  ylo yhi
0.0      3.3307451277832407  zlo zhi
    -2.9557328413229835                       0                       0  xy xz yz

Atoms # atomic

     1   1      0.5062636348992956      5.1095777617012281      3.3331275002044789
     2   1      4.1576059269331225       3.008539141183094      3.3324220340556301
     3   1      1.1885327723479693      2.0892838935656672      3.3323898198709787
     4   1     -1.4650665131616873      5.1093766592247256      1.6703211309520343
     5   1      5.1430684693916824      1.3015432787772041      1.6702125094765976
     6   1      2.1741446914120033      3.7965377097104711      1.6701924097603749
     7   2      2.9445858082220977      5.1094237431832248   0.0081172275227203456
     8   2   -0.023758449724117045       3.401961853888563      1.6705044645507676
     9   2      2.9315113652795706      1.6958813254509122      1.6702841043095868
