(written by ASE)

243 atoms
2 atom types

0.0      17.709600000000002  xlo xhi
0.0      15.336963490860896  ylo yhi
0.0      10.001999999999999  zlo zhi
    -8.8548000000000009                       0                       0  xy xz yz

Masses

     1      55.844999985634189 # Fe
     2      30.973761990032177 # P

Atoms # atomic

     1   1      3.4814766039120006                       0                       0
     2   1      -1.740738301955999      3.0150471816689657                       0
     3   1       1.210861698044001      2.0972739819513326                       0
     4   1      1.5124974198960008                       0      1.6669999999999996
     5   1    -0.75624870994799909      1.3098611887883551      1.6669999999999996
     6   1      2.1953512900520007      3.8024599748319434      1.6669999999999996
     7   2  8.8817841970012523e-16                       0                       0
     8   2  9.9740956234957907e-16      3.4082141090801987      1.6669999999999996
     9   2      2.9516000000000009      1.7041070545400994      1.6669999999999996
    10   1      3.4814766039120006                       0      3.3339999999999992
    11   1      -1.740738301955999      3.0150471816689657      3.3339999999999992
    12   1       1.210861698044001      2.0972739819513326      3.3339999999999992
    13   1      1.5124974198960008                       0      5.0009999999999986
    14   1    -0.75624870994799909      1.3098611887883551      5.0009999999999986
    15   1      2.1953512900520007      3.8024599748319434      5.0009999999999986
    16   2  8.8817841970012523e-16                       0      3.3339999999999992
    17   2  9.9740956234957907e-16      3.4082141090801987      5.0009999999999986
    18   2      2.9516000000000009      1.7041070545400994      5.0009999999999986
    19   1      3.4814766039120006                       0      6.6679999999999984
    20   1      -1.740738301955999      3.0150471816689657      6.6679999999999984
    21   1       1.210861698044001      2.0972739819513326      6.6679999999999984
    22   1      1.5124974198960008                       0      8.3349999999999973
    23   1    -0.75624870994799909      1.3098611887883551      8.3349999999999973
    24   1      2.1953512900520007      3.8024599748319434      8.3349999999999973
    25   2  8.8817841970012523e-16                       0      6.6679999999999984
    26   2  9.9740956234957907e-16      3.4082141090801987      8.3349999999999973
    27   2      2.9516000000000009      1.7041070545400994      8.3349999999999973
    28   1      0.5298766039120002      5.1123211636202983                       0
    29   1     -4.6923383019559992      8.1273683452892644                       0
    30   1     -1.7407383019559994      7.2095951455716314                       0
    31   1     -1.4391025801039996      5.1123211636202983      1.6669999999999996
    32   1     -3.7078487099479993      6.4221823524086536      1.6669999999999996
    33   1    -0.75624870994799975      8.9147811384522413      1.6669999999999996
    34   2     -2.9515999999999996      5.1123211636202983                       0
    35   2     -2.9515999999999996      8.5205352727004975      1.6669999999999996
    36   2  4.4408920985006262e-16      6.8164282181603975      1.6669999999999996
    37   1      0.5298766039120002      5.1123211636202983      3.3339999999999992
    38   1     -4.6923383019559992      8.1273683452892644      3.3339999999999992
    39   1     -1.7407383019559994      7.2095951455716314      3.3339999999999992
    40   1     -1.4391025801039996      5.1123211636202983      5.0009999999999986
    41   1     -3.7078487099479993      6.4221823524086536      5.0009999999999986
    42   1    -0.75624870994799975      8.9147811384522413      5.0009999999999986
    43   2     -2.9515999999999996      5.1123211636202983      3.3339999999999992
    44   2     -2.9515999999999996      8.5205352727004975      5.0009999999999986
    45   2  4.4408920985006262e-16      6.8164282181603975      5.0009999999999986
    46   1      0.5298766039120002      5.1123211636202983      6.6679999999999984
    47   1     -4.6923383019559992      8.1273683452892644      6.6679999999999984
    48   1     -1.7407383019559994      7.2095951455716314      6.6679999999999984
    49   1     -1.4391025801039996      5.1123211636202983      8.3349999999999973
    50   1     -3.7078487099479993      6.4221823524086536      8.3349999999999973
    51   1    -0.75624870994799975      8.9147811384522413      8.3349999999999973
    52   2     -2.9515999999999996      5.1123211636202983      6.6679999999999984
    53   2     -2.9515999999999996      8.5205352727004975      8.3349999999999973
    54   2  4.4408920985006262e-16      6.8164282181603975      8.3349999999999973
    55   1     -2.4217233960880002      10.224642327240597                       0
    56   1     -7.6439383019560001      13.239689508909562                       0
    57   1     -4.6923383019560001      12.321916309191929                       0
    58   1     -4.3907025801039996      10.224642327240597      1.6669999999999996
    59   1     -6.6594487099480002      11.534503516028952      1.6669999999999996
    60   1     -3.7078487099480002       14.02710230207254      1.6669999999999996
    61   2                 -5.9032      10.224642327240597                       0
    62   2                 -5.9032      13.632856436320795      1.6669999999999996
    63   2                 -2.9516      11.928749381780696      1.6669999999999996
    64   1     -2.4217233960880002      10.224642327240597      3.3339999999999992
    65   1     -7.6439383019560001      13.239689508909562      3.3339999999999992
    66   1     -4.6923383019560001      12.321916309191929      3.3339999999999992
    67   1     -4.3907025801039996      10.224642327240597      5.0009999999999986
    68   1     -6.6594487099480002      11.534503516028952      5.0009999999999986
    69   1     -3.7078487099480002       14.02710230207254      5.0009999999999986
    70   2                 -5.9032      10.224642327240597      3.3339999999999992
    71   2                 -5.9032      13.632856436320795      5.0009999999999986
    72   2                 -2.9516      11.928749381780696      5.0009999999999986
    73   1     -2.4217233960880002      10.224642327240597      6.6679999999999984
    74   1     -7.6439383019560001      13.239689508909562      6.6679999999999984
    75   1     -4.6923383019560001      12.321916309191929      6.6679999999999984
    76   1     -4.3907025801039996      10.224642327240597      8.3349999999999973
    77   1     -6.6594487099480002      11.534503516028952      8.3349999999999973
    78   1     -3.7078487099480002       14.02710230207254      8.3349999999999973
    79   2                 -5.9032      10.224642327240597      6.6679999999999984
    80   2                 -5.9032      13.632856436320795      8.3349999999999973
    81   2                 -2.9516      11.928749381780696      8.3349999999999973
    82   1       9.384676603912002                       0                       0
    83   1      4.1624616980440017      3.0150471816689657                       0
    84   1      7.1140616980440017      2.0972739819513326                       0
    85   1      7.4156974198960022                       0      1.6669999999999996
    86   1      5.1469512900520016      1.3098611887883551      1.6669999999999996
    87   1      8.0985512900520007      3.8024599748319434      1.6669999999999996
    88   2      5.9032000000000018                       0                       0
    89   2      5.9032000000000018      3.4082141090801987      1.6669999999999996
    90   2      8.8548000000000009      1.7041070545400994      1.6669999999999996
    91   1       9.384676603912002                       0      3.3339999999999992
    92   1      4.1624616980440017      3.0150471816689657      3.3339999999999992
    93   1      7.1140616980440017      2.0972739819513326      3.3339999999999992
    94   1      7.4156974198960022                       0      5.0009999999999986
    95   1      5.1469512900520016      1.3098611887883551      5.0009999999999986
    96   1      8.0985512900520007      3.8024599748319434      5.0009999999999986
    97   2      5.9032000000000018                       0      3.3339999999999992
    98   2      5.9032000000000018      3.4082141090801987      5.0009999999999986
    99   2      8.8548000000000009      1.7041070545400994      5.0009999999999986
   100   1       9.384676603912002                       0      6.6679999999999984
   101   1      4.1624616980440017      3.0150471816689657      6.6679999999999984
   102   1      7.1140616980440017      2.0972739819513326      6.6679999999999984
   103   1      7.4156974198960022                       0      8.3349999999999973
   104   1      5.1469512900520016      1.3098611887883551      8.3349999999999973
   105   1      8.0985512900520007      3.8024599748319434      8.3349999999999973
   106   2      5.9032000000000018                       0      6.6679999999999984
   107   2      5.9032000000000018      3.4082141090801987      8.3349999999999973
   108   2      8.8548000000000009      1.7041070545400994      8.3349999999999973
   109   1      6.4330766039120011      5.1123211636202983                       0
   110   1      1.2108616980440015      8.1273683452892644                       0
   111   1      4.1624616980440017      7.2095951455716314                       0
   112   1      4.4640974198960013      5.1123211636202983      1.6669999999999996
   113   1      2.1953512900520016      6.4221823524086536      1.6669999999999996
   114   1      5.1469512900520016      8.9147811384522413      1.6669999999999996
   115   2      2.9516000000000013      5.1123211636202983                       0
   116   2      2.9516000000000013      8.5205352727004975      1.6669999999999996
   117   2      5.9032000000000018      6.8164282181603975      1.6669999999999996
   118   1      6.4330766039120011      5.1123211636202983      3.3339999999999992
   119   1      1.2108616980440015      8.1273683452892644      3.3339999999999992
   120   1      4.1624616980440017      7.2095951455716314      3.3339999999999992
   121   1      4.4640974198960013      5.1123211636202983      5.0009999999999986
   122   1      2.1953512900520016      6.4221823524086536      5.0009999999999986
   123   1      5.1469512900520016      8.9147811384522413      5.0009999999999986
   124   2      2.9516000000000013      5.1123211636202983      3.3339999999999992
   125   2      2.9516000000000013      8.5205352727004975      5.0009999999999986
   126   2      5.9032000000000018      6.8164282181603975      5.0009999999999986
   127   1      6.4330766039120011      5.1123211636202983      6.6679999999999984
   128   1      1.2108616980440015      8.1273683452892644      6.6679999999999984
   129   1      4.1624616980440017      7.2095951455716314      6.6679999999999984
   130   1      4.4640974198960013      5.1123211636202983      8.3349999999999973
   131   1      2.1953512900520016      6.4221823524086536      8.3349999999999973
   132   1      5.1469512900520016      8.9147811384522413      8.3349999999999973
   133   2      2.9516000000000013      5.1123211636202983      6.6679999999999984
   134   2      2.9516000000000013      8.5205352727004975      8.3349999999999973
   135   2      5.9032000000000018      6.8164282181603975      8.3349999999999973
   136   1      3.4814766039120006      10.224642327240597                       0
   137   1      -1.740738301955999      13.239689508909562                       0
   138   1       1.210861698044001      12.321916309191929                       0
   139   1      1.5124974198960008      10.224642327240597      1.6669999999999996
   140   1    -0.75624870994799909      11.534503516028952      1.6669999999999996
   141   1      2.1953512900520007       14.02710230207254      1.6669999999999996
   142   2  8.8817841970012523e-16      10.224642327240597                       0
   143   2  9.9740956234957907e-16      13.632856436320795      1.6669999999999996
   144   2      2.9516000000000009      11.928749381780696      1.6669999999999996
   145   1      3.4814766039120006      10.224642327240597      3.3339999999999992
   146   1      -1.740738301955999      13.239689508909562      3.3339999999999992
   147   1       1.210861698044001      12.321916309191929      3.3339999999999992
   148   1      1.5124974198960008      10.224642327240597      5.0009999999999986
   149   1    -0.75624870994799909      11.534503516028952      5.0009999999999986
   150   1      2.1953512900520007       14.02710230207254      5.0009999999999986
   151   2  8.8817841970012523e-16      10.224642327240597      3.3339999999999992
   152   2  9.9740956234957907e-16      13.632856436320795      5.0009999999999986
   153   2      2.9516000000000009      11.928749381780696      5.0009999999999986
   154   1      3.4814766039120006      10.224642327240597      6.6679999999999984
   155   1      -1.740738301955999      13.239689508909562      6.6679999999999984
   156   1       1.210861698044001      12.321916309191929      6.6679999999999984
   157   1      1.5124974198960008      10.224642327240597      8.3349999999999973
   158   1    -0.75624870994799909      11.534503516028952      8.3349999999999973
   159   1      2.1953512900520007       14.02710230207254      8.3349999999999973
   160   2  8.8817841970012523e-16      10.224642327240597      6.6679999999999984
   161   2  9.9740956234957907e-16      13.632856436320795      8.3349999999999973
   162   2      2.9516000000000009      11.928749381780696      8.3349999999999973
   163   1      15.287876603912002                       0                       0
   164   1      10.065661698044003      3.0150471816689657                       0
   165   1      13.017261698044003      2.0972739819513326                       0
   166   1      13.318897419896002                       0      1.6669999999999996
   167   1      11.050151290052003      1.3098611887883551      1.6669999999999996
   168   1      14.001751290052002      3.8024599748319434      1.6669999999999996
   169   2      11.806400000000004                       0                       0
   170   2      11.806400000000004      3.4082141090801987      1.6669999999999996
   171   2      14.758000000000003      1.7041070545400994      1.6669999999999996
   172   1      15.287876603912002                       0      3.3339999999999992
   173   1      10.065661698044003      3.0150471816689657      3.3339999999999992
   174   1      13.017261698044003      2.0972739819513326      3.3339999999999992
   175   1      13.318897419896002                       0      5.0009999999999986
   176   1      11.050151290052003      1.3098611887883551      5.0009999999999986
   177   1      14.001751290052002      3.8024599748319434      5.0009999999999986
   178   2      11.806400000000004                       0      3.3339999999999992
   179   2      11.806400000000004      3.4082141090801987      5.0009999999999986
   180   2      14.758000000000003      1.7041070545400994      5.0009999999999986
   181   1      15.287876603912002                       0      6.6679999999999984
   182   1      10.065661698044003      3.0150471816689657      6.6679999999999984
   183   1      13.017261698044003      2.0972739819513326      6.6679999999999984
   184   1      13.318897419896002                       0      8.3349999999999973
   185   1      11.050151290052003      1.3098611887883551      8.3349999999999973
   186   1      14.001751290052002      3.8024599748319434      8.3349999999999973
   187   2      11.806400000000004                       0      6.6679999999999984
   188   2      11.806400000000004      3.4082141090801987      8.3349999999999973
   189   2      14.758000000000003      1.7041070545400994      8.3349999999999973
   190   1      12.336276603912001      5.1123211636202983                       0
   191   1      7.1140616980440017      8.1273683452892644                       0
   192   1      10.065661698044002      7.2095951455716314                       0
   193   1      10.367297419896001      5.1123211636202983      1.6669999999999996
   194   1      8.0985512900520025      6.4221823524086536      1.6669999999999996
   195   1      11.050151290052002      8.9147811384522413      1.6669999999999996
   196   2      8.8548000000000009      5.1123211636202983                       0
   197   2      8.8548000000000027      8.5205352727004975      1.6669999999999996
   198   2      11.806400000000002      6.8164282181603975      1.6669999999999996
   199   1      12.336276603912001      5.1123211636202983      3.3339999999999992
   200   1      7.1140616980440017      8.1273683452892644      3.3339999999999992
   201   1      10.065661698044002      7.2095951455716314      3.3339999999999992
   202   1      10.367297419896001      5.1123211636202983      5.0009999999999986
   203   1      8.0985512900520025      6.4221823524086536      5.0009999999999986
   204   1      11.050151290052002      8.9147811384522413      5.0009999999999986
   205   2      8.8548000000000009      5.1123211636202983      3.3339999999999992
   206   2      8.8548000000000027      8.5205352727004975      5.0009999999999986
   207   2      11.806400000000002      6.8164282181603975      5.0009999999999986
   208   1      12.336276603912001      5.1123211636202983      6.6679999999999984
   209   1      7.1140616980440017      8.1273683452892644      6.6679999999999984
   210   1      10.065661698044002      7.2095951455716314      6.6679999999999984
   211   1      10.367297419896001      5.1123211636202983      8.3349999999999973
   212   1      8.0985512900520025      6.4221823524086536      8.3349999999999973
   213   1      11.050151290052002      8.9147811384522413      8.3349999999999973
   214   2      8.8548000000000009      5.1123211636202983      6.6679999999999984
   215   2      8.8548000000000027      8.5205352727004975      8.3349999999999973
   216   2      11.806400000000002      6.8164282181603975      8.3349999999999973
   217   1       9.384676603912002      10.224642327240597                       0
   218   1      4.1624616980440017      13.239689508909562                       0
   219   1      7.1140616980440017      12.321916309191929                       0
   220   1      7.4156974198960022      10.224642327240597      1.6669999999999996
   221   1      5.1469512900520016      11.534503516028952      1.6669999999999996
   222   1      8.0985512900520007       14.02710230207254      1.6669999999999996
   223   2      5.9032000000000018      10.224642327240597                       0
   224   2      5.9032000000000018      13.632856436320795      1.6669999999999996
   225   2      8.8548000000000009      11.928749381780696      1.6669999999999996
   226   1       9.384676603912002      10.224642327240597      3.3339999999999992
   227   1      4.1624616980440017      13.239689508909562      3.3339999999999992
   228   1      7.1140616980440017      12.321916309191929      3.3339999999999992
   229   1      7.4156974198960022      10.224642327240597      5.0009999999999986
   230   1      5.1469512900520016      11.534503516028952      5.0009999999999986
   231   1      8.0985512900520007       14.02710230207254      5.0009999999999986
   232   2      5.9032000000000018      10.224642327240597      3.3339999999999992
   233   2      5.9032000000000018      13.632856436320795      5.0009999999999986
   234   2      8.8548000000000009      11.928749381780696      5.0009999999999986
   235   1       9.384676603912002      10.224642327240597      6.6679999999999984
   236   1      4.1624616980440017      13.239689508909562      6.6679999999999984
   237   1      7.1140616980440017      12.321916309191929      6.6679999999999984
   238   1      7.4156974198960022      10.224642327240597      8.3349999999999973
   239   1      5.1469512900520016      11.534503516028952      8.3349999999999973
   240   1      8.0985512900520007       14.02710230207254      8.3349999999999973
   241   2      5.9032000000000018      10.224642327240597      6.6679999999999984
   242   2      5.9032000000000018      13.632856436320795      8.3349999999999973
   243   2      8.8548000000000009      11.928749381780696      8.3349999999999973
