(written by ASE)

432 atoms
2 atom types

0.0      20.807400000000005  xlo xhi
0.0      20.807400000000005  ylo yhi
0.0      20.807400000000005  zlo zhi

Masses

     1      74.921594980726837 # As
     2      69.722999982064152 # Ga

Atoms # atomic

     1   1          1.035308322518          1.035308322518          1.035308322518
     2   1      2.4325916774820007      5.9004916774820018      4.5032083225180006
     3   1      5.9004916774820018      4.5032083225180006      2.4325916774820007
     4   1      4.5032083225180006      2.4325916774820007      5.9004916774820018
     5   1      5.9004916774820018      5.9004916774820018      5.9004916774820018
     6   1      4.5032083225180006          1.035308322518      2.4325916774820007
     7   1          1.035308322518      2.4325916774820007      4.5032083225180006
     8   1      2.4325916774820007      4.5032083225180006          1.035308322518
     9   2      2.4174891810559993      2.4174891810559993      2.4174891810559993
    10   2      1.0504108189440005      4.5183108189440011      5.8853891810560004
    11   2      4.5183108189440011      5.8853891810560004      1.0504108189440005
    12   2      5.8853891810560004      1.0504108189440005      4.5183108189440011
    13   2      4.5183108189440011      4.5183108189440011      4.5183108189440011
    14   2      5.8853891810560004      2.4174891810559993      1.0504108189440005
    15   2      2.4174891810559993      1.0504108189440005      5.8853891810560004
    16   2      1.0504108189440005      5.8853891810560004      2.4174891810559993
    17   1          1.035308322518          1.035308322518      7.9711083225180008
    18   1      2.4325916774820007      5.9004916774820018      11.439008322518003
    19   1      5.9004916774820018      4.5032083225180006       9.368391677482002
    20   1      4.5032083225180006      2.4325916774820007      12.836291677482002
    21   1      5.9004916774820018      5.9004916774820018      12.836291677482002
    22   1      4.5032083225180006          1.035308322518       9.368391677482002
    23   1          1.035308322518      2.4325916774820007      11.439008322518003
    24   1      2.4325916774820007      4.5032083225180006      7.9711083225180008
    25   2      2.4174891810559993      2.4174891810559993      9.3532891810560006
    26   2      1.0504108189440005      4.5183108189440011      12.821189181056003
    27   2      4.5183108189440011      5.8853891810560004      7.9862108189440022
    28   2      5.8853891810560004      1.0504108189440005      11.454110818944002
    29   2      4.5183108189440011      4.5183108189440011      11.454110818944002
    30   2      5.8853891810560004      2.4174891810559993      7.9862108189440022
    31   2      2.4174891810559993      1.0504108189440005      12.821189181056003
    32   2      1.0504108189440005      5.8853891810560004      9.3532891810560006
    33   1          1.035308322518          1.035308322518      14.906908322518003
    34   1      2.4325916774820007      5.9004916774820018      18.374808322518003
    35   1      5.9004916774820018      4.5032083225180006      16.304191677482002
    36   1      4.5032083225180006      2.4325916774820007      19.772091677482003
    37   1      5.9004916774820018      5.9004916774820018      19.772091677482003
    38   1      4.5032083225180006          1.035308322518      16.304191677482002
    39   1          1.035308322518      2.4325916774820007      18.374808322518003
    40   1      2.4325916774820007      4.5032083225180006      14.906908322518003
    41   2      2.4174891810559993      2.4174891810559993      16.289089181056003
    42   2      1.0504108189440005      4.5183108189440011      19.756989181056003
    43   2      4.5183108189440011      5.8853891810560004      14.922010818944003
    44   2      5.8853891810560004      1.0504108189440005      18.389910818944003
    45   2      4.5183108189440011      4.5183108189440011      18.389910818944003
    46   2      5.8853891810560004      2.4174891810559993      14.922010818944003
    47   2      2.4174891810559993      1.0504108189440005      19.756989181056003
    48   2      1.0504108189440005      5.8853891810560004      16.289089181056003
    49   1          1.035308322518      7.9711083225180008          1.035308322518
    50   1      2.4325916774820007      12.836291677482002      4.5032083225180006
    51   1      5.9004916774820018      11.439008322518003      2.4325916774820007
    52   1      4.5032083225180006       9.368391677482002      5.9004916774820018
    53   1      5.9004916774820018      12.836291677482002      5.9004916774820018
    54   1      4.5032083225180006      7.9711083225180008      2.4325916774820007
    55   1          1.035308322518       9.368391677482002      4.5032083225180006
    56   1      2.4325916774820007      11.439008322518003          1.035308322518
    57   2      2.4174891810559993      9.3532891810560006      2.4174891810559993
    58   2      1.0504108189440005      11.454110818944002      5.8853891810560004
    59   2      4.5183108189440011      12.821189181056003      1.0504108189440005
    60   2      5.8853891810560004      7.9862108189440022      4.5183108189440011
    61   2      4.5183108189440011      11.454110818944002      4.5183108189440011
    62   2      5.8853891810560004      9.3532891810560006      1.0504108189440005
    63   2      2.4174891810559993      7.9862108189440022      5.8853891810560004
    64   2      1.0504108189440005      12.821189181056003      2.4174891810559993
    65   1          1.035308322518      7.9711083225180008      7.9711083225180008
    66   1      2.4325916774820007      12.836291677482002      11.439008322518003
    67   1      5.9004916774820018      11.439008322518003       9.368391677482002
    68   1      4.5032083225180006       9.368391677482002      12.836291677482002
    69   1      5.9004916774820018      12.836291677482002      12.836291677482002
    70   1      4.5032083225180006      7.9711083225180008       9.368391677482002
    71   1          1.035308322518       9.368391677482002      11.439008322518003
    72   1      2.4325916774820007      11.439008322518003      7.9711083225180008
    73   2      2.4174891810559993      9.3532891810560006      9.3532891810560006
    74   2      1.0504108189440005      11.454110818944002      12.821189181056003
    75   2      4.5183108189440011      12.821189181056003      7.9862108189440022
    76   2      5.8853891810560004      7.9862108189440022      11.454110818944002
    77   2      4.5183108189440011      11.454110818944002      11.454110818944002
    78   2      5.8853891810560004      9.3532891810560006      7.9862108189440022
    79   2      2.4174891810559993      7.9862108189440022      12.821189181056003
    80   2      1.0504108189440005      12.821189181056003      9.3532891810560006
    81   1          1.035308322518      7.9711083225180008      14.906908322518003
    82   1      2.4325916774820007      12.836291677482002      18.374808322518003
    83   1      5.9004916774820018      11.439008322518003      16.304191677482002
    84   1      4.5032083225180006       9.368391677482002      19.772091677482003
    85   1      5.9004916774820018      12.836291677482002      19.772091677482003
    86   1      4.5032083225180006      7.9711083225180008      16.304191677482002
    87   1          1.035308322518       9.368391677482002      18.374808322518003
    88   1      2.4325916774820007      11.439008322518003      14.906908322518003
    89   2      2.4174891810559993      9.3532891810560006      16.289089181056003
    90   2      1.0504108189440005      11.454110818944002      19.756989181056003
    91   2      4.5183108189440011      12.821189181056003      14.922010818944003
    92   2      5.8853891810560004      7.9862108189440022      18.389910818944003
    93   2      4.5183108189440011      11.454110818944002      18.389910818944003
    94   2      5.8853891810560004      9.3532891810560006      14.922010818944003
    95   2      2.4174891810559993      7.9862108189440022      19.756989181056003
    96   2      1.0504108189440005      12.821189181056003      16.289089181056003
    97   1          1.035308322518      14.906908322518003          1.035308322518
    98   1      2.4325916774820007      19.772091677482003      4.5032083225180006
    99   1      5.9004916774820018      18.374808322518003      2.4325916774820007
   100   1      4.5032083225180006      16.304191677482002      5.9004916774820018
   101   1      5.9004916774820018      19.772091677482003      5.9004916774820018
   102   1      4.5032083225180006      14.906908322518003      2.4325916774820007
   103   1          1.035308322518      16.304191677482002      4.5032083225180006
   104   1      2.4325916774820007      18.374808322518003          1.035308322518
   105   2      2.4174891810559993      16.289089181056003      2.4174891810559993
   106   2      1.0504108189440005      18.389910818944003      5.8853891810560004
   107   2      4.5183108189440011      19.756989181056003      1.0504108189440005
   108   2      5.8853891810560004      14.922010818944003      4.5183108189440011
   109   2      4.5183108189440011      18.389910818944003      4.5183108189440011
   110   2      5.8853891810560004      16.289089181056003      1.0504108189440005
   111   2      2.4174891810559993      14.922010818944003      5.8853891810560004
   112   2      1.0504108189440005      19.756989181056003      2.4174891810559993
   113   1          1.035308322518      14.906908322518003      7.9711083225180008
   114   1      2.4325916774820007      19.772091677482003      11.439008322518003
   115   1      5.9004916774820018      18.374808322518003       9.368391677482002
   116   1      4.5032083225180006      16.304191677482002      12.836291677482002
   117   1      5.9004916774820018      19.772091677482003      12.836291677482002
   118   1      4.5032083225180006      14.906908322518003       9.368391677482002
   119   1          1.035308322518      16.304191677482002      11.439008322518003
   120   1      2.4325916774820007      18.374808322518003      7.9711083225180008
   121   2      2.4174891810559993      16.289089181056003      9.3532891810560006
   122   2      1.0504108189440005      18.389910818944003      12.821189181056003
   123   2      4.5183108189440011      19.756989181056003      7.9862108189440022
   124   2      5.8853891810560004      14.922010818944003      11.454110818944002
   125   2      4.5183108189440011      18.389910818944003      11.454110818944002
   126   2      5.8853891810560004      16.289089181056003      7.9862108189440022
   127   2      2.4174891810559993      14.922010818944003      12.821189181056003
   128   2      1.0504108189440005      19.756989181056003      9.3532891810560006
   129   1          1.035308322518      14.906908322518003      14.906908322518003
   130   1      2.4325916774820007      19.772091677482003      18.374808322518003
   131   1      5.9004916774820018      18.374808322518003      16.304191677482002
   132   1      4.5032083225180006      16.304191677482002      19.772091677482003
   133   1      5.9004916774820018      19.772091677482003      19.772091677482003
   134   1      4.5032083225180006      14.906908322518003      16.304191677482002
   135   1          1.035308322518      16.304191677482002      18.374808322518003
   136   1      2.4325916774820007      18.374808322518003      14.906908322518003
   137   2      2.4174891810559993      16.289089181056003      16.289089181056003
   138   2      1.0504108189440005      18.389910818944003      19.756989181056003
   139   2      4.5183108189440011      19.756989181056003      14.922010818944003
   140   2      5.8853891810560004      14.922010818944003      18.389910818944003
   141   2      4.5183108189440011      18.389910818944003      18.389910818944003
   142   2      5.8853891810560004      16.289089181056003      14.922010818944003
   143   2      2.4174891810559993      14.922010818944003      19.756989181056003
   144   2      1.0504108189440005      19.756989181056003      16.289089181056003
   145   1      7.9711083225180008          1.035308322518          1.035308322518
   146   1       9.368391677482002      5.9004916774820018      4.5032083225180006
   147   1      12.836291677482002      4.5032083225180006      2.4325916774820007
   148   1      11.439008322518003      2.4325916774820007      5.9004916774820018
   149   1      12.836291677482002      5.9004916774820018      5.9004916774820018
   150   1      11.439008322518003          1.035308322518      2.4325916774820007
   151   1      7.9711083225180008      2.4325916774820007      4.5032083225180006
   152   1       9.368391677482002      4.5032083225180006          1.035308322518
   153   2      9.3532891810560006      2.4174891810559993      2.4174891810559993
   154   2      7.9862108189440022      4.5183108189440011      5.8853891810560004
   155   2      11.454110818944002      5.8853891810560004      1.0504108189440005
   156   2      12.821189181056003      1.0504108189440005      4.5183108189440011
   157   2      11.454110818944002      4.5183108189440011      4.5183108189440011
   158   2      12.821189181056003      2.4174891810559993      1.0504108189440005
   159   2      9.3532891810560006      1.0504108189440005      5.8853891810560004
   160   2      7.9862108189440022      5.8853891810560004      2.4174891810559993
   161   1      7.9711083225180008          1.035308322518      7.9711083225180008
   162   1       9.368391677482002      5.9004916774820018      11.439008322518003
   163   1      12.836291677482002      4.5032083225180006       9.368391677482002
   164   1      11.439008322518003      2.4325916774820007      12.836291677482002
   165   1      12.836291677482002      5.9004916774820018      12.836291677482002
   166   1      11.439008322518003          1.035308322518       9.368391677482002
   167   1      7.9711083225180008      2.4325916774820007      11.439008322518003
   168   1       9.368391677482002      4.5032083225180006      7.9711083225180008
   169   2      9.3532891810560006      2.4174891810559993      9.3532891810560006
   170   2      7.9862108189440022      4.5183108189440011      12.821189181056003
   171   2      11.454110818944002      5.8853891810560004      7.9862108189440022
   172   2      12.821189181056003      1.0504108189440005      11.454110818944002
   173   2      11.454110818944002      4.5183108189440011      11.454110818944002
   174   2      12.821189181056003      2.4174891810559993      7.9862108189440022
   175   2      9.3532891810560006      1.0504108189440005      12.821189181056003
   176   2      7.9862108189440022      5.8853891810560004      9.3532891810560006
   177   1      7.9711083225180008          1.035308322518      14.906908322518003
   178   1       9.368391677482002      5.9004916774820018      18.374808322518003
   179   1      12.836291677482002      4.5032083225180006      16.304191677482002
   180   1      11.439008322518003      2.4325916774820007      19.772091677482003
   181   1      12.836291677482002      5.9004916774820018      19.772091677482003
   182   1      11.439008322518003          1.035308322518      16.304191677482002
   183   1      7.9711083225180008      2.4325916774820007      18.374808322518003
   184   1       9.368391677482002      4.5032083225180006      14.906908322518003
   185   2      9.3532891810560006      2.4174891810559993      16.289089181056003
   186   2      7.9862108189440022      4.5183108189440011      19.756989181056003
   187   2      11.454110818944002      5.8853891810560004      14.922010818944003
   188   2      12.821189181056003      1.0504108189440005      18.389910818944003
   189   2      11.454110818944002      4.5183108189440011      18.389910818944003
   190   2      12.821189181056003      2.4174891810559993      14.922010818944003
   191   2      9.3532891810560006      1.0504108189440005      19.756989181056003
   192   2      7.9862108189440022      5.8853891810560004      16.289089181056003
   193   1      7.9711083225180008      7.9711083225180008          1.035308322518
   194   1       9.368391677482002      12.836291677482002      4.5032083225180006
   195   1      12.836291677482002      11.439008322518003      2.4325916774820007
   196   1      11.439008322518003       9.368391677482002      5.9004916774820018
   197   1      12.836291677482002      12.836291677482002      5.9004916774820018
   198   1      11.439008322518003      7.9711083225180008      2.4325916774820007
   199   1      7.9711083225180008       9.368391677482002      4.5032083225180006
   200   1       9.368391677482002      11.439008322518003          1.035308322518
   201   2      9.3532891810560006      9.3532891810560006      2.4174891810559993
   202   2      7.9862108189440022      11.454110818944002      5.8853891810560004
   203   2      11.454110818944002      12.821189181056003      1.0504108189440005
   204   2      12.821189181056003      7.9862108189440022      4.5183108189440011
   205   2      11.454110818944002      11.454110818944002      4.5183108189440011
   206   2      12.821189181056003      9.3532891810560006      1.0504108189440005
   207   2      9.3532891810560006      7.9862108189440022      5.8853891810560004
   208   2      7.9862108189440022      12.821189181056003      2.4174891810559993
   209   1      7.9711083225180008      7.9711083225180008      7.9711083225180008
   210   1       9.368391677482002      12.836291677482002      11.439008322518003
   211   1      12.836291677482002      11.439008322518003       9.368391677482002
   212   1      11.439008322518003       9.368391677482002      12.836291677482002
   213   1      12.836291677482002      12.836291677482002      12.836291677482002
   214   1      11.439008322518003      7.9711083225180008       9.368391677482002
   215   1      7.9711083225180008       9.368391677482002      11.439008322518003
   216   1       9.368391677482002      11.439008322518003      7.9711083225180008
   217   2      9.3532891810560006      9.3532891810560006      9.3532891810560006
   218   2      7.9862108189440022      11.454110818944002      12.821189181056003
   219   2      11.454110818944002      12.821189181056003      7.9862108189440022
   220   2      12.821189181056003      7.9862108189440022      11.454110818944002
   221   2      11.454110818944002      11.454110818944002      11.454110818944002
   222   2      12.821189181056003      9.3532891810560006      7.9862108189440022
   223   2      9.3532891810560006      7.9862108189440022      12.821189181056003
   224   2      7.9862108189440022      12.821189181056003      9.3532891810560006
   225   1      7.9711083225180008      7.9711083225180008      14.906908322518003
   226   1       9.368391677482002      12.836291677482002      18.374808322518003
   227   1      12.836291677482002      11.439008322518003      16.304191677482002
   228   1      11.439008322518003       9.368391677482002      19.772091677482003
   229   1      12.836291677482002      12.836291677482002      19.772091677482003
   230   1      11.439008322518003      7.9711083225180008      16.304191677482002
   231   1      7.9711083225180008       9.368391677482002      18.374808322518003
   232   1       9.368391677482002      11.439008322518003      14.906908322518003
   233   2      9.3532891810560006      9.3532891810560006      16.289089181056003
   234   2      7.9862108189440022      11.454110818944002      19.756989181056003
   235   2      11.454110818944002      12.821189181056003      14.922010818944003
   236   2      12.821189181056003      7.9862108189440022      18.389910818944003
   237   2      11.454110818944002      11.454110818944002      18.389910818944003
   238   2      12.821189181056003      9.3532891810560006      14.922010818944003
   239   2      9.3532891810560006      7.9862108189440022      19.756989181056003
   240   2      7.9862108189440022      12.821189181056003      16.289089181056003
   241   1      7.9711083225180008      14.906908322518003          1.035308322518
   242   1       9.368391677482002      19.772091677482003      4.5032083225180006
   243   1      12.836291677482002      18.374808322518003      2.4325916774820007
   244   1      11.439008322518003      16.304191677482002      5.9004916774820018
   245   1      12.836291677482002      19.772091677482003      5.9004916774820018
   246   1      11.439008322518003      14.906908322518003      2.4325916774820007
   247   1      7.9711083225180008      16.304191677482002      4.5032083225180006
   248   1       9.368391677482002      18.374808322518003          1.035308322518
   249   2      9.3532891810560006      16.289089181056003      2.4174891810559993
   250   2      7.9862108189440022      18.389910818944003      5.8853891810560004
   251   2      11.454110818944002      19.756989181056003      1.0504108189440005
   252   2      12.821189181056003      14.922010818944003      4.5183108189440011
   253   2      11.454110818944002      18.389910818944003      4.5183108189440011
   254   2      12.821189181056003      16.289089181056003      1.0504108189440005
   255   2      9.3532891810560006      14.922010818944003      5.8853891810560004
   256   2      7.9862108189440022      19.756989181056003      2.4174891810559993
   257   1      7.9711083225180008      14.906908322518003      7.9711083225180008
   258   1       9.368391677482002      19.772091677482003      11.439008322518003
   259   1      12.836291677482002      18.374808322518003       9.368391677482002
   260   1      11.439008322518003      16.304191677482002      12.836291677482002
   261   1      12.836291677482002      19.772091677482003      12.836291677482002
   262   1      11.439008322518003      14.906908322518003       9.368391677482002
   263   1      7.9711083225180008      16.304191677482002      11.439008322518003
   264   1       9.368391677482002      18.374808322518003      7.9711083225180008
   265   2      9.3532891810560006      16.289089181056003      9.3532891810560006
   266   2      7.9862108189440022      18.389910818944003      12.821189181056003
   267   2      11.454110818944002      19.756989181056003      7.9862108189440022
   268   2      12.821189181056003      14.922010818944003      11.454110818944002
   269   2      11.454110818944002      18.389910818944003      11.454110818944002
   270   2      12.821189181056003      16.289089181056003      7.9862108189440022
   271   2      9.3532891810560006      14.922010818944003      12.821189181056003
   272   2      7.9862108189440022      19.756989181056003      9.3532891810560006
   273   1      7.9711083225180008      14.906908322518003      14.906908322518003
   274   1       9.368391677482002      19.772091677482003      18.374808322518003
   275   1      12.836291677482002      18.374808322518003      16.304191677482002
   276   1      11.439008322518003      16.304191677482002      19.772091677482003
   277   1      12.836291677482002      19.772091677482003      19.772091677482003
   278   1      11.439008322518003      14.906908322518003      16.304191677482002
   279   1      7.9711083225180008      16.304191677482002      18.374808322518003
   280   1       9.368391677482002      18.374808322518003      14.906908322518003
   281   2      9.3532891810560006      16.289089181056003      16.289089181056003
   282   2      7.9862108189440022      18.389910818944003      19.756989181056003
   283   2      11.454110818944002      19.756989181056003      14.922010818944003
   284   2      12.821189181056003      14.922010818944003      18.389910818944003
   285   2      11.454110818944002      18.389910818944003      18.389910818944003
   286   2      12.821189181056003      16.289089181056003      14.922010818944003
   287   2      9.3532891810560006      14.922010818944003      19.756989181056003
   288   2      7.9862108189440022      19.756989181056003      16.289089181056003
   289   1      14.906908322518003          1.035308322518          1.035308322518
   290   1      16.304191677482002      5.9004916774820018      4.5032083225180006
   291   1      19.772091677482003      4.5032083225180006      2.4325916774820007
   292   1      18.374808322518003      2.4325916774820007      5.9004916774820018
   293   1      19.772091677482003      5.9004916774820018      5.9004916774820018
   294   1      18.374808322518003          1.035308322518      2.4325916774820007
   295   1      14.906908322518003      2.4325916774820007      4.5032083225180006
   296   1      16.304191677482002      4.5032083225180006          1.035308322518
   297   2      16.289089181056003      2.4174891810559993      2.4174891810559993
   298   2      14.922010818944003      4.5183108189440011      5.8853891810560004
   299   2      18.389910818944003      5.8853891810560004      1.0504108189440005
   300   2      19.756989181056003      1.0504108189440005      4.5183108189440011
   301   2      18.389910818944003      4.5183108189440011      4.5183108189440011
   302   2      19.756989181056003      2.4174891810559993      1.0504108189440005
   303   2      16.289089181056003      1.0504108189440005      5.8853891810560004
   304   2      14.922010818944003      5.8853891810560004      2.4174891810559993
   305   1      14.906908322518003          1.035308322518      7.9711083225180008
   306   1      16.304191677482002      5.9004916774820018      11.439008322518003
   307   1      19.772091677482003      4.5032083225180006       9.368391677482002
   308   1      18.374808322518003      2.4325916774820007      12.836291677482002
   309   1      19.772091677482003      5.9004916774820018      12.836291677482002
   310   1      18.374808322518003          1.035308322518       9.368391677482002
   311   1      14.906908322518003      2.4325916774820007      11.439008322518003
   312   1      16.304191677482002      4.5032083225180006      7.9711083225180008
   313   2      16.289089181056003      2.4174891810559993      9.3532891810560006
   314   2      14.922010818944003      4.5183108189440011      12.821189181056003
   315   2      18.389910818944003      5.8853891810560004      7.9862108189440022
   316   2      19.756989181056003      1.0504108189440005      11.454110818944002
   317   2      18.389910818944003      4.5183108189440011      11.454110818944002
   318   2      19.756989181056003      2.4174891810559993      7.9862108189440022
   319   2      16.289089181056003      1.0504108189440005      12.821189181056003
   320   2      14.922010818944003      5.8853891810560004      9.3532891810560006
   321   1      14.906908322518003          1.035308322518      14.906908322518003
   322   1      16.304191677482002      5.9004916774820018      18.374808322518003
   323   1      19.772091677482003      4.5032083225180006      16.304191677482002
   324   1      18.374808322518003      2.4325916774820007      19.772091677482003
   325   1      19.772091677482003      5.9004916774820018      19.772091677482003
   326   1      18.374808322518003          1.035308322518      16.304191677482002
   327   1      14.906908322518003      2.4325916774820007      18.374808322518003
   328   1      16.304191677482002      4.5032083225180006      14.906908322518003
   329   2      16.289089181056003      2.4174891810559993      16.289089181056003
   330   2      14.922010818944003      4.5183108189440011      19.756989181056003
   331   2      18.389910818944003      5.8853891810560004      14.922010818944003
   332   2      19.756989181056003      1.0504108189440005      18.389910818944003
   333   2      18.389910818944003      4.5183108189440011      18.389910818944003
   334   2      19.756989181056003      2.4174891810559993      14.922010818944003
   335   2      16.289089181056003      1.0504108189440005      19.756989181056003
   336   2      14.922010818944003      5.8853891810560004      16.289089181056003
   337   1      14.906908322518003      7.9711083225180008          1.035308322518
   338   1      16.304191677482002      12.836291677482002      4.5032083225180006
   339   1      19.772091677482003      11.439008322518003      2.4325916774820007
   340   1      18.374808322518003       9.368391677482002      5.9004916774820018
   341   1      19.772091677482003      12.836291677482002      5.9004916774820018
   342   1      18.374808322518003      7.9711083225180008      2.4325916774820007
   343   1      14.906908322518003       9.368391677482002      4.5032083225180006
   344   1      16.304191677482002      11.439008322518003          1.035308322518
   345   2      16.289089181056003      9.3532891810560006      2.4174891810559993
   346   2      14.922010818944003      11.454110818944002      5.8853891810560004
   347   2      18.389910818944003      12.821189181056003      1.0504108189440005
   348   2      19.756989181056003      7.9862108189440022      4.5183108189440011
   349   2      18.389910818944003      11.454110818944002      4.5183108189440011
   350   2      19.756989181056003      9.3532891810560006      1.0504108189440005
   351   2      16.289089181056003      7.9862108189440022      5.8853891810560004
   352   2      14.922010818944003      12.821189181056003      2.4174891810559993
   353   1      14.906908322518003      7.9711083225180008      7.9711083225180008
   354   1      16.304191677482002      12.836291677482002      11.439008322518003
   355   1      19.772091677482003      11.439008322518003       9.368391677482002
   356   1      18.374808322518003       9.368391677482002      12.836291677482002
   357   1      19.772091677482003      12.836291677482002      12.836291677482002
   358   1      18.374808322518003      7.9711083225180008       9.368391677482002