LAMMPS data file via write_data, version 2 Aug 2023, timestep = 0, units = metal

243 atoms
2 atom types

-0.011654753414559238 15.25765475341436 xlo xhi
-0.05045571117056191 13.253879017268243 ylo yhi
0.01668803678518671 16.56641196321459 zlo zhi
-7.681261236852792 0 0 xy xz yz

Masses

1 15.99899999588435
2 28.08499999277529

Atoms # atomic

6 1 0.23085737507745852 1.8401788552246157 1.1162011780945085 0 0 0
1 1 3.360789668407958 0.7153832070159646 2.5537175659101483 0 0 0
2 1 2.7730306102941134 2.555058500319232 0.7073206451395091 0 0 0
89 2 3.8666959354780124 2.0960188897445517 1.834701480745635 0 0 0
87 1 5.31419108359335 1.840305897649281 1.112856908352325 0 0 0
90 2 6.411452352992894 2.3004426824418687 16.53822804243474 0 0 -2
82 1 8.449797365770165 0.7133284697541346 2.5534115286117074 0 0 0
83 1 7.859052759746453 2.5551173462131946 0.7084294317311136 0 0 0
170 2 8.953353775691843 2.0953047957263835 1.8357339515063718 0 0 0
168 1 10.400212233175935 1.8387475739027073 1.1156676616258197 0 0 0
171 2 11.49480740866127 2.300927060024672 16.541439689291643 0 0 -1
8 2 -1.2182134099535213 2.0948230511889374 1.8326037927858752 0 0 0
163 1 13.532885991136123 0.7133946660534357 2.549493958220029 0 0 0
164 1 12.941433266915185 2.5553751824419333 0.7103850821250272 0 0 0
28 1 0.8210507270218184 5.117773910858522 2.5539725521431027 0 0 0
109 1 5.905610037625325 5.1158565944427385 2.551856474459693 0 0 0
190 1 10.99356973854946 5.1174969610847905 2.553656797703752 0 0 0
33 1 -2.3135073601506226 6.245435749153695 1.115978851152069 0 0 0
36 2 -1.2185046771158698 6.7060126337756705 16.539541604432497 0 0 -2
29 1 0.23194941608908604 6.957607761218705 0.7054204314521338 0 0 0
116 2 1.3242911514122708 6.500785781469014 1.8357258836031523 0 0 0
114 1 2.772694371241014 6.245980415270319 1.1160385386531333 0 0 0
117 2 3.8683236988940206 6.703805982936543 16.539112104476793 0 0 -2
110 1 5.314250968965222 6.958766863866793 0.7120000963165692 0 0 0
197 2 6.411341683611914 6.498507842759997 1.8354267194452212 0 0 0
195 1 7.859993276932258 6.2445201641737675 1.116930824646154 0 0 0
198 2 8.952012748768897 6.705578703661976 16.53802146714703 0 0 -2
35 2 -3.76255940734872 6.498377984000638 1.8335823591361624 -1 0 0
191 1 10.400356851951338 6.960862384633351 0.7064612175619007 0 0 0
55 1 -1.720766624697799 9.524651246401048 2.558290010084442 0 0 0
136 1 3.3638391045339473 9.521244561582595 2.552639148940905 0 0 0
217 1 8.44873168284361 9.51971058052435 2.5499742371962384 0 0 0
60 1 -4.853355465908675 10.650076753409545 1.1149683938783457 0 0 0
56 1 -2.3110487081347904 11.36175935628489 0.7063627870479802 0 0 0
143 2 -1.2200835631206859 10.904548385282695 1.8354692758816087 0 0 0
141 1 0.2248163022426981 10.647222064365746 1.111806688006889 0 0 0
144 2 1.325134318617339 11.110456695742839 16.542452346285465 0 0 -1
137 1 2.7757057516869716 11.362193073014382 0.7086050543691538 0 0 0
224 2 3.8691579137445595 10.902967446141638 1.8369392350662366 0 0 0
222 1 5.3170699830151555 10.6482238432743 1.1183333773585042 0 0 0
62 2 -6.303509933823498 10.902183756866444 1.831366696834541 0 0 0
218 1 7.852907181517393 11.365614465730337 0.7118206057806236 0 0 0
3 1 1.4762847266295696 1.122961812073164 4.399804199987585 0 0 0
18 2 1.326433597264052 2.300510971343806 5.526359045690366 0 0 0
84 1 6.560756290680155 1.123390195186949 4.397249636544981 0 0 0
99 2 6.409596874298778 2.2989691062735367 5.524339567706678 0 0 0
165 1 11.645075214685157 1.118127106023595 4.400393376324091 0 0 0
4 1 -1.0681212151429778 3.273017957085434 2.9589161709770884 0 0 0
34 2 -0.12359612652220786 4.399103572156825 3.680519701373523 0 0 0
5 1 0.8219485997599709 3.681773702784067 4.807053454512683 0 0 0
85 1 4.015448527225138 3.272297349291255 2.9630410053738974 0 0 0
115 2 4.961077599783605 4.399527699283836 3.680088065838066 0 0 0
86 1 5.908874007888143 3.679378337976173 4.802947427971118 0 0 0
166 1 9.10339936647826 3.273759577131169 2.960693834542081 0 0 0
196 2 10.048332222755443 4.3995712635132485 3.6789076677159085 0 0 0
167 1 10.990906063362297 3.680856987022407 4.805803537370809 0 0 0
31 1 -3.612581736735372 7.6745957786582535 2.9616714871846685 0 0 0
30 1 -1.0662752011188963 5.527371601886271 4.398216276067098 0 0 0
45 2 -1.2158070315338056 6.704247904452461 5.524253857101711 0 0 0
112 1 1.474223615796971 7.676456017943183 2.964057308933002 0 0 0
111 1 4.017778441452028 5.528364599340878 4.397400617907708 0 0 0
126 2 3.8651772225677834 6.703275175269799 5.525592457102337 0 0 0
193 1 6.559674961720854 7.676784238140761 2.961156624190393 0 0 0
192 1 9.10323468526084 5.5241878623658 4.398473493909533 0 0 0
57 1 -3.610589994055874 9.931768457428007 4.396065532423353 0 0 0
61 2 -2.667558618150495 8.801775494307902 3.679923799803647 0 0 0
32 1 -1.7201082944198718 8.084766727252658 4.8050291655 0 0 0
138 1 1.476413208441615 9.929963311785771 4.397328368024535 0 0 0
142 2 2.420838105255572 8.803368642298699 3.6795146821119933 0 0 0
113 1 3.3648886312650284 8.084198701339371 4.80477029076557 0 0 0
219 1 6.55959305471269 9.928727501814832 4.401207419406442 0 0 0
223 2 7.504486801032788 8.804101751458111 3.6797544909511997 0 0 0
194 1 8.449473764575577 8.083916479626561 4.804874984960975 0 0 0
7 2 2.4172988875665213 -0.005779872817218701 3.6792395427875992 0 -1 0
58 1 -6.1530696127215325 12.076980870967168 2.960645444518828 0 0 0
59 1 -4.265233333762154 12.48753472237553 4.804969274424256 0 0 0
88 2 7.504422137988252 -0.004139359451418946 3.6800186571489433 0 -1 0
139 1 -1.0671725771476037 12.080500927257265 2.962153398805876 0 0 0
140 1 0.8225143893435884 12.489550076040594 4.804678273823157 0 0 0
153 2 1.3238440697220772 11.107393638806007 5.52243297872697 0 0 0
169 2 12.592075871310856 -0.005271384939874807 3.6793999384079172 0 0 0
220 1 4.01786710056524 12.082939866297536 2.960011563287208 0 0 0
221 1 5.907718938991132 12.487782308075946 4.806188678771884 0 0 0
15 1 0.22788617988588 1.8417015700542942 6.649081476713876 0 0 0
10 1 3.3613672768583203 0.713026199100221 8.085630326002262 0 0 0
11 1 2.7750883855144264 2.5531845406865377 6.244316835947708 0 0 0
98 2 3.8700569745926146 2.0949555058834224 7.370105164714869 0 0 0
96 1 5.31804652897432 1.8394329268845475 6.6517475493616685 0 0 0
91 1 8.450389354575544 0.7133623585100425 8.086874873216027 0 0 0
92 1 7.855415987453358 2.555922878153286 6.244734852369598 0 0 0
179 2 8.95251234244939 2.0941025561974076 7.366340773309866 0 0 0
177 1 10.402850229201587 1.8432800286825244 6.650550801367896 0 0 0
180 2 11.496480846982784 2.2996765520166336 5.522256564582577 0 0 0
17 2 -1.2194838861355826 2.096324709727226 7.370274695217092 -1 0 0
172 1 13.536248836282232 0.7149792985811169 8.091037956176422 0 0 0
173 1 12.944927496809582 2.554192144195093 6.240368854735149 0 0 0
37 1 0.8216155610467597 5.117342599845585 8.086359343314227 0 0 0
118 1 5.905117235145416 5.116195283085339 8.085107571040096 0 0 0
199 1 10.993060001032974 5.118227737222517 8.091233655509683 0 0 0
44 2 -3.7601985241658706 6.500132555211276 7.370655980127394 0 0 0
42 1 -2.3139983575686696 6.245141231897232 6.647121283058737 0 0 0
38 1 0.2320893510765707 6.956769678417464 6.242794751163116 0 0 0
125 2 1.3252964797653424 6.499696461076513 7.370260880586679 0 0 0
123 1 2.771761981933184 6.2415819883443175 6.650633926204139 0 0 0
119 1 5.3129114855328945 6.95848162697361 6.244550429942843 0 0 0
206 2 6.409995061542847 6.497350388540974 7.367641752505885 0 0 0
204 1 7.8609473746817295 6.24659760858106 6.652984206841692 0 0 0
207 2 8.953428480275731 6.701689308669265 5.52327199351552 0 0 0
200 1 10.401327856315985 6.956427868924046 6.242690965519716 0 0 0
64 1 -1.7233893828144318 9.521407868992087 8.086454163940495 0 0 0
145 1 3.36536113258055 9.519982489998016 8.087552638926736 0 0 0
226 1 8.449120826342423 9.524661374596462 8.090417771439721 0 0 0
71 2 -6.302830074145218 10.904393777416239 7.369274908464851 -1 0 0
69 1 -4.8543833164091374 10.648949828405186 6.65122363646379 0 0 0
72 2 -3.7592976100633027 11.107543236940208 5.5250712240532565 0 0 0
65 1 -2.310643604144614 11.362475258589972 6.245350444662623 0 0 0
152 2 -1.2158716940708594 10.902886813312326 7.372139961201255 0 0 0
150 1 0.23180296206166418 10.649168928492955 6.6517448266834815 0 0 0
146 1 2.771450754525275 11.364165483155249 6.242821507762941 0 0 0
233 2 3.867017373666336 10.901635296049625 7.367446721353052 0 0 0
231 1 5.315791615663044 10.6484408066869 6.650171094181548 0 0 0
234 2 6.411102384510377 11.107326217757928 5.5257237417495295 0 0 0
227 1 7.859614061237042 11.361557790215516 6.242328282573999 0 0 0
12 1 1.47493023303454 1.1205856528509257 9.934097361563106 0 0 0
16 2 2.4200664741436997 -0.005294432854843795 9.215011501001367 0 -1 0
93 1 6.5612157983126025 1.1211752075441637 9.934748293084635 0 0 0
174 1 11.646289203467887 1.121835332545195 9.933230227628098 0 0 0
13 1 -1.0669279789632817 3.270447075510582 8.498307224865757 0 0 0
43 2 -0.1221122447739158 4.398893608272332 9.21297076294422 0 0 0
14 1 0.823906359469111 3.6810059863654034 10.337920305910803 0 0 0
94 1 4.016884581604721 3.276021474532918 8.492443876226657 0 0 0
124 2 4.963285110226872 4.399198346693007 9.214337311485851 0 0 0
95 1 5.907562084901768 3.6808062874145464 10.341533602913065 0 0 0
175 1 9.102639072749499 3.2699509943258716 8.494656474599982 0 0 0
205 2 10.045475644670846 4.398128849038457 9.214595024045407 0 0 0
176 1 10.993905333983205 3.6787670822601797 10.337261830621824 0 0 0
40 1 -3.61005050180467 7.67664258689565 8.497924685822632 0 0 0
39 1 -1.0668768650626537 5.5274625931311805 9.929534288177212 0 0 0
54 2 -1.2182598939641802 6.70242925953542 11.05878938151925 0 0 0
121 1 1.4759428737014648 7.67789005346303 8.495056827155913 0 0 0
120 1 4.017536523533858 5.522577841913614 9.936220860783449 0 0 0
135 2 3.8689749329414322 6.704487839412175 11.057515088591265 0 0 0
202 1 6.560128851015758 7.675915560746529 8.492458213037956 0 0 0
201 1 9.10390672692624 5.528581790022643 9.932036445349382 0 0 0
216 2 8.95471560492467 6.703881683004436 11.06118558479868 0 0 0
66 1 -3.608275588597289 9.932073540644238 9.933013199098626 0 0 0
70 2 -2.6656616060769607 8.8047531632637 9.214277194547506 0 0 0
41 1 -1.7178948862063126 8.0841053294627 10.336755548708684 0 0 0
147 1 1.4736372838810246 9.928319065026109 9.93227668339545 0 0 0
151 2 2.4207071271335154 8.80360397581142 9.214474760895577 0 0 0
122 1 3.3654425534615626 8.085638151324703 10.340147019196488 0 0 0
228 1 6.560533200262155 9.927299001728786 9.936319765492108 0 0 0
232 2 7.504404867598666 8.801924208305925 9.213287574445912 0 0 0
203 1 8.450104646545576 8.084274730262603 10.340191671238605 0 0 0
67 1 -6.153667949561782 12.080638806501492 8.49641639066233 0 0 0
68 1 -4.260190076938102 12.487514926279198 10.337554617106235 0 0 0
81 2 -3.7610664235628155 11.106740225171945 11.059453937899146 0 0 0
97 2 7.505715585670784 -0.004245074924625461 9.213440904937888 0 0 0
148 1 -1.067439602762537 12.082517585314072 8.494944823197969 0 0 0
149 1 0.8215186414613358 12.487747459594503 10.339901536279681 0 0 0
178 2 12.588917909541786 -0.00548711815145627 9.213333301350808 0 0 0
229 1 4.018198838625128 12.077327011032985 8.495523523034722 0 0 0
230 1 5.906570017375529 12.48949426440456 10.339794820713246 0 0 0
26 2 -1.2132707942424197 2.095654912138457 12.904089506420387 0 0 0
24 1 0.23491882199267278 1.8402963811954145 12.185079760932963 0 0 0
27 2 1.3269461076832905 2.3007219295734185 11.057363712631037 0 0 0
19 1 3.368427207740996 0.7155009068654467 13.622979290920426 0 0 0
20 1 2.773408449763655 2.5560269362367816 11.776686765767133 0 0 0
107 2 3.868448935505458 2.096327440893127 12.901106323030621 0 0 0
105 1 5.318192301528711 1.8413821607110041 12.18680592424085 0 0 0
108 2 6.4123919752533975 2.299664627432917 11.06005624261287 0 0 0
100 1 8.450155030407732 0.7150038390106918 13.624280383336414 0 0 0
101 1 7.8622379946074865 2.5540026767797497 11.775641368606804 0 0 0
188 2 8.95393989910704 2.096079485659359 12.90552890887431 0 0 0
186 1 10.401907935949664 1.8406712740117221 12.185507698523956 0 0 0
189 2 11.497390514449192 2.2990661830466377 11.05937618160521 0 0 0
181 1 13.534677615213722 0.7136295081625537 13.62068724281936 0 0 0
182 1 12.946394593080935 2.5541400227494293 11.777624488489776 0 0 0
46 1 0.8213485697685918 5.117461182304751 13.620727483085481 0 0 0
127 1 5.909644743839416 5.119526226157379 13.62537475138148 0 0 0
208 1 10.990619876272202 5.1173714204037335 13.618292670020299 0 0 0
53 2 -3.75803690041363 6.499528632197776 12.904558067916241 -1 0 0
51 1 -2.3087049872759984 6.246424919631657 12.189473323476042 0 0 0
47 1 0.22870311013144207 6.959235106791013 11.778786116476502 0 0 0
134 2 1.3254742611365287 6.498303587443999 12.902269807679238 0 0 0
132 1 2.7749684552269316 6.246918062626317 12.18521275142985 0 0 0
128 1 5.318807740690842 6.9580961798232766 11.774167194936739 0 0 0
215 2 6.410078599092607 6.501888157064045 12.905216650217563 0 0 0
213 1 7.857996857276583 6.24506741290375 12.185738907143227 0 0 0
209 1 10.403327156306085 6.956816480702501 11.778560814326989 0 0 0
73 1 -1.7193614490012123 9.520869909016012 13.619436129508953 0 0 0
159 1 0.23523081658266154 10.649866423248504 12.18753458582756 0 0 0
154 1 3.3674648231169 9.526238150646856 13.627463532857252 0 0 0
235 1 8.451367160162196 9.521797635417592 13.621308019444879 0 0 0
80 2 -6.300569857100782 10.903464972118504 12.90456430689054 0 0 0
78 1 -4.853049179027814 10.64927441959881 12.186669059127935 0 0 0
74 1 -2.3127031824799795 11.363698918877741 11.777234324422803 0 0 0
161 2 -1.2157842613789462 10.903374190540577 12.900729534444194 0 0 0
162 2 1.3264660156459502 11.105897811518604 11.057489006235164 0 0 0
155 1 2.775126439057817 11.359651028407907 11.774578087527726 0 0 0
242 2 3.8688835430874002 10.905591183050872 12.90380487619084 0 0 0
240 1 5.314970072785714 10.64995095617357 12.181020893589046 0 0 0
243 2 6.413381608189612 11.109494666527418 11.058806104493618 0 0 0
236 1 7.863095913682801 11.362572332093325 11.776245127039452 0 0 0
9 2 1.324615615290126 2.3005222426478085 16.539310647481344 0 0 -1
21 1 1.473396300100379 1.1235502371566441 15.465889913965325 0 0 0
102 1 6.560645709300455 1.1227503013270017 15.4668941519302 0 0 0
106 2 7.5044403642803434 -0.00454535251195573 14.748495187676296 0 -1 0
183 1 11.646357980729254 1.1286464264034066 15.464417207079366 0 0 0
22 1 -1.06851045271701 3.278801079549873 14.026984509540709 0 0 0
52 2 -0.12265529146765619 4.402811791460004 14.749608607439814 0 0 0
23 1 0.8211625593032221 3.681474072874671 15.874343769443826 0 0 0
103 1 4.018507208801427 3.2714770798517354 14.030003556201542 0 0 0
133 2 4.961391845262121 4.39965929357782 14.748468222315914 0 0 0
104 1 5.905693564770871 3.682259467786672 15.87593039197317 0 0 0
184 1 9.100573597466246 3.2756679970728877 14.030297289003384 0 0 0
214 2 10.04878230173682 4.400585328178132 14.748088603146453 0 0 0
185 1 10.994270841242455 3.6832221605149287 15.875683279760418 0 0 0
49 1 -3.610046146487994 7.680454467181869 14.026692566006739 0 0 0
48 1 -1.068099380583118 5.52823787867366 15.468234683811477 0 0 0
130 1 1.4741686628943862 7.675578214877529 14.02968294690575 0 0 0
129 1 4.017551365621596 5.52883299497384 15.464371475243192 0 0 0
211 1 6.560657523321059 7.678741327382252 14.031881322478908 0 0 0
210 1 9.103065357447193 5.527657356373522 15.465479069642587 0 0 0
75 1 -3.6121807594874062 9.927439580209596 15.469228317003727 0 0 0
79 2 -2.6653561702371054 8.804937779196255 14.74774926362805 0 0 0
50 1 -1.722958488595037 8.088304810555954 15.87747517606338 0 0 0
156 1 1.4754385216707524 9.934099528773846 15.467286760604459 0 0 0
160 2 2.4177220692711536 8.804470154329856 14.747985600700313 0 0 0
131 1 3.3665666767035116 8.084234642687903 15.871146804018506 0 0 0
237 1 6.5619828588372 9.932831594823059 15.462827452747387 0 0 0
241 2 7.5065460618337045 8.805049020702725 14.747814047084207 0 0 0
212 1 8.449049941075307 8.087768745195575 15.875685566204915 0 0 0
25 2 2.4202964415014154 -0.0016184053144713759 14.747627074454549 0 -1 0
76 1 -6.152543571657069 12.083438673675337 14.028952582712936 0 0 0
63 2 -3.7587948449277575 11.108946305099968 16.537954852374614 0 0 -2
77 1 -4.267761487372114 12.491524707455447 15.878599300714162 0 0 0
157 1 -1.0675636037701777 12.080051019957635 14.028754002350512 0 0 0
158 1 0.8211615154137233 12.49052663129275 15.87567815551007 0 0 0
187 2 12.58931157112958 -0.0015976319759073362 14.749934076768712 0 0 0
238 1 4.019121454348573 12.080417317398854 14.032719099425613 0 0 0
225 2 6.408068026123696 11.107000778883691 16.537781608695518 0 0 -2
239 1 5.907415601474213 12.489644077209983 15.873481383085666 0 0 0

Velocities

6 0.39599976828118444 6.597657885139445 4.14364783963142
1 -2.6321875166502133 -4.247016670770472 -2.9749739487523073
2 -0.7808537861154966 2.2142456548592913 1.9028872073709253
89 -1.7796575649655269 -2.001366772676824 0.5874994507916909
87 1.180206732182152 2.832390772179188 -1.067544290085025
90 -0.9182265833191516 4.202744628719076 2.5475024733067673
82 -2.81751003150992 0.3349639986298745 -3.2948902884653526
83 -2.6059346381081014 1.623639055575314 -3.4527956980002927
170 -0.22871703212591374 0.8931698799197635 -0.10920472113692112
168 1.8930645218115896 -0.8595839376483638 -0.41285597019844605
171 1.7937688042824036 0.24316305711938135 0.28128359119319213
8 3.3578891972787073 -2.6176230771334064 0.8311477061340836
163 0.18927544182110156 1.215684916589955 -0.3049499723034152
164 1.1149627551151324 1.6251605880951565 -4.473627192724372
28 2.764835090346904 2.0384453362750516 -4.6583699215135
109 1.4932570956271722 -4.644505983947533 3.356599546416632
190 -2.576561717815094 1.2988433171401317 -1.9346425025560618
33 -0.0957407766133574 1.1479451897105817 1.4623422749028454
36 2.421518875114515 2.982051113855688 -2.049794005425403
29 3.6177809132848457 0.21079938609048093 -0.6387364180243202
116 -2.621209867579123 -1.422779973697668 2.064214984093446
114 6.656614909336812 -2.2726186797952095 -1.549925994783165
117 -1.7137987339029923 0.6956535243305808 0.13833164953724267
110 2.449679979047204 -0.30991967302972007 -0.3473750751152212
197 2.4189994163553483 0.2731866641757254 -0.989888392383804
195 3.005418303953393 -1.0318180217813708 -0.9080358223065447
198 -0.9027799405373674 -1.6158205428184769 0.10928975287185072
35 -0.3918033535501322 2.8027903790891457 -0.2418521097534492
191 2.187381284961494 2.3693475218235025 -1.1589885972770728
55 2.187572458702361 2.4879062665821094 -0.3612987676020005
136 -6.333131099685154 1.0623965806820057 -0.056824894716058165
217 0.2510144390195343 -6.645899919417039 -2.8068192490011494
60 4.817649328970654 0.22084519300061484 0.8585729308499871
56 1.363441982435161 -0.9595370463619912 1.1255569606949385
143 0.34439575726030847 -0.4883940860031719 -0.6050647328394408
141 5.418147472621178 1.6773124887756434 -0.06792345552086361
144 3.485086664122495 3.026396394077645 2.391480893818681
137 -2.538885644056085 -1.8188668577109017 0.37930540752925784
224 -2.2899156339531945 0.6089356901294976 -3.8380107934411893
222 -1.6490734381457723 -0.3598456538033718 -0.7734372046114856
62 -1.0803975377442125 0.34777290780778325 -0.9157654463910879
218 1.7341834284407975 -0.8724726011990445 -2.5997990522735988
3 -2.846825582633712 -2.509452295018714 0.9875262519349113
18 0.8225145032218097 0.6944630547104574 2.6770030372681495
84 -0.639965195118469 -2.2588654797639 2.7293950550294324
99 2.935656366412727 -1.1328259992848626 -0.032632063441557856
165 -2.1248160524452184 0.6782943319445012 3.3310186651205536
4 0.4015126241807895 -1.8519432466944146 1.4353029621978795
34 0.8208119483278489 0.707885808230435 -0.752988855159561
5 4.272976736491616 -0.38905756798993446 -1.6123001545851163
85 -0.26757851948505046 -0.5646132692158452 1.271852775231424
115 -2.357378382503094 -0.7385051595941562 1.690708269785894
86 0.9974677948887419 -2.791442030216686 -4.038883819464178
166 0.19568666615580477 -0.10390743803281581 3.6328283886349477
196 -2.08686612317817 -0.6428706953835248 1.493480515190863
167 0.997013626759117 -0.8274134005988488 0.8745003445419358
31 4.216636841064822 -0.3887984070146636 2.6779269326000024
30 -0.7554315042523064 -0.2887430664239643 -1.647472690277438
45 -2.5501581061066725 -2.6360025385563772 1.3885157643762034
112 -0.4063852774837358 -0.31693082500698533 2.1831284835203486
111 -3.2510835238357645 1.2885573572652984 -6.712588537143417
126 -0.031209258448432288 2.524099234504702 0.3860814969387675
193 -1.0026122842389338 0.44720788703928166 -0.695415150518507
192 1.9111661967170486 -1.5366242761032503 4.299955267599095
57 4.277227203139563 2.862243443611692 -1.0898617866735802
61 -1.41683396277442 -2.479992616134454 -0.4136771348075649
32 0.41334821059592536 -4.9095602727328576 -0.21644366916999155
138 -0.05653125458106268 0.11943627917665113 -0.6528437880134927
142 -0.9178817629956271 -1.9892039072803829 0.24844020509194267
113 5.157985287516527 -4.979060702261759 -3.2046857644576288
219 1.2270842909714539 -2.705032519584877 1.6108702571757734
223 0.2524267828647596 -4.18616955131964 -0.8605232335542493
194 0.5609549344786254 0.5620421397957632 -0.24179035088050801
7 -2.7480762140352555 0.25828387856964546 -2.1689148402472638
58 -3.30337301665805 -1.0635705832135742 0.31282285785243463
59 -0.9374216484484774 2.5720588894399645 -7.147196005708499
88 0.8527726268837422 -1.9510286891299171 0.6196449289244585
139 2.2521378809996575 -0.11779959338614503 0.9711799250091057
140 5.876455691914743 0.9786770335069276 -0.6866536173162539
153 -1.1406474757214784 -0.8867317314408395 0.9189789426064042
169 -1.8196176802029276 -0.7664916209656791 -1.8751168797852502
220 -0.09142209728647939 -1.8401448726247969 -0.17823254220642354
221 0.6599583597655961 -2.261341159438207 -2.4092722526893415
15 1.9662106467120188 -4.323425181161241 -2.1782988952798705
10 -2.0945290684243294 3.2095942596200837 2.7678347735177353
11 -0.20125363838400046 -2.2145338191117343 0.10189198886224961
98 -0.4405154853714113 1.1694725563649884 -0.6988912689118707
96 -0.6875837353282773 1.2496811180976648 -1.506378396599696
91 3.9630563391978386 -0.41451361810865806 2.0065486236564385
92 1.2564907002247785 0.7693230905921139 0.9787896263744776
179 -2.4327739249363676 -0.7760476371023162 -1.5696371114332908
177 -1.06898231108088 1.7024145794149919 1.7347575016970003
180 2.2702779959203574 1.683760507887515 -3.9349981282684694
17 -0.5451497280233338 -0.046766463656039 -0.1465819799138662
172 -0.7675023133289866 0.45691826058049667 3.3366430660951405
173 -0.1514815160251578 -4.527852453236315 -1.9842727794837052
37 3.012810905209806 4.725989280616403 -2.2864151483603505
118 -4.949858200361254 1.442843912772721 0.8902096449908397
199 0.05068861782263005 -0.03196437497003033 0.18339140781726002
44 2.731422148972364 0.9591998199440948 -1.0333627916699786
42 0.18882157182323006 1.1211740710827882 2.4816335131239953
38 0.3787893370667474 3.6942905041687446 -1.9425355027013012
125 0.8637270884133373 -1.2108368868298356 -3.066039207976158
123 -3.0792898668141153 3.157335651783148 1.8415646705076238
119 3.8687896613408115 -0.28407818100288695 1.1767067421685709
206 -2.6452645520181957 -1.169090850226919 1.8209803428329647
204 -0.5363539783308893 -2.8166567798756144 0.3494726694757451
207 -2.0144014581837633 0.2672657783887662 -2.7898495423701957
200 -0.19357614366945636 1.114846479606769 -0.8129541290487221
64 -2.6326089796591856 1.966510342075264 3.2538445795852056
145 1.5833925779187275 -5.13384387510819 3.6622818047632526
226 0.4244263874945298 3.3621114983986224 3.2608226937792777
71 1.3834203990019682 -3.614472012388962 -1.424697008266199
69 -5.075454858236939 2.602988548108331 0.05337159764090919
72 -1.3546974793773892 -1.2435127678350641 -3.2669540694901227
65 -2.1364260518387197 1.594427661729885 0.6721664094117649
152 -0.2792806780342849 -2.3240469868810223 -2.0987523713049425
150 2.2480688237020074 -4.733302528603463 0.20872626557158921
146 -1.7076795462847385 1.9396477382402533 4.0601624697148395
233 -2.060595696898062 -2.53200974936718 0.19792269963037473
231 -2.7240410574594036 5.884457241327134 1.530118223897483
234 0.9573883603707611 2.235592839846622 2.6262893913647645
227 1.7106280513808247 -3.674316515803816 2.8203854772327572
12 2.5478077345043424 1.6236487636701424 -3.38915675781394
16 -0.21838104666651165 1.4111570579897856 0.16926218872782564
93 -0.939055376625993 5.490622277795169 0.5703024897207974
174 -0.47674574712005663 -3.2593273808949155 2.608459751867322
13 1.63086194979012 -2.414429072424772 0.12670664087239433
43 -0.3762052956277954 -0.7192634274284161 2.1100034509435646
14 2.869543824862046 1.790871989133569 -1.1100997507194361
94 0.03587308775205896 2.751758233386684 2.4815508354141165
124 -1.307993683458126 0.3156404770735721 -1.2010333141976004
95 -0.9630840836440808 -2.2953122755316877 -0.2479562085238278
175 0.13281775587096153 -2.3166698382264195 -0.7481015698588163
205 0.8169222884681541 0.9810591450166317 -2.468596883539588
176 3.6679704509637436 0.5773330027849591 -0.9601757228337098
40 3.7656014962547166 3.1465813739051844 1.625902222938253
39 2.433344126922872 1.7547795835166717 -2.9904842091117088
54 -4.62229190983408 -0.8201472662038163 2.673735682427979
121 -1.199082117423539 -0.7064462963139785 -0.19653234617738502
120 -2.040937652001304 0.23056812560834938 2.737524230028113
135 -2.0758051905737256 -1.3152983450004418 -0.24364433060117166
202 -3.751358279846853 0.8180650478886032 5.317826522226819
201 3.8098312863840635 -2.8018108477778334 2.477853380705651
216 2.48272674253631 -1.5577793807038438 -0.34614467588049797
66 -0.6584258426120516 4.247216660896932 -1.7766961443218163
70 1.7807794393977752 -1.733047030889128 -0.8612372891344624
41 -0.20455014965350418 -0.1894935116540439 0.4380410978277502
147 -2.6829691063574916 -2.3903703915949825 -0.5064760580878936
151 -0.11219786962089053 1.3536801789343802 1.111243967113017
122 -2.2717454094815293 3.891077728353626 -1.7849181873736364
228 -0.6247836253677721 0.36842629928698356 0.5626074098846191
232 2.843938033650548 1.6495394280633353 0.8758193541739118
203 -0.8098949323296732 -1.8187587982815203 -1.666950255827135
67 -1.3486510608701199 1.0786962932538429 -3.080456011855121
68 3.3065267379496333 -4.30635773801601 -2.803815214417086
81 -1.3739999222259327 -1.5446351593476169 3.8367562685573984
97 1.935869911474716 -2.77478666554132 0.8311713098260018
148 -2.1532062331850854 0.6819633304792118 -2.7309103974663893
149 -0.6995728338057391 -0.24636245092684492 -0.6911344733073171
178 1.3427400478963483 0.9422401799400857 -0.4111730651261983
229 -1.5421182435931897 -2.0709757926422214 3.5068941691891626
230 -1.9765687631137425 1.192349922895755 -1.959496246193335
26 -0.5082843365470945 -4.4846511209813595 3.011344106479453
24 -1.3092541774635407 -5.733821020013959 0.5962917062989557
27 -0.5980660857627302 2.641830077255178 -1.3081401503070411
19 -1.1303118523195756 -1.4985308345945452 -0.14354114324502038
20 0.12046147401668368 -0.6120732861291527 -0.2576695365194848
107 1.7974106171011681 -2.7331127370195487 3.2382173984736684
105 -4.872336478027282 1.0375201961112888 -4.863149429905533
108 -2.3201698402915842 -0.652466670021843 -0.08568327822235007
100 -3.739089841334109 -1.4704861579856332 -2.137701875451251
101 0.6164604435592661 -1.9921929452616538 1.161660663762633
188 -2.6392053407092164 1.8074520320656313 -0.7193651194291734
186 -1.7924133441522256 0.5382578303520267 3.706508428225403
189 0.36995236541709486 -0.3369681356071468 -1.813451904178927
181 -1.8364901464892727 0.07337383298263839 0.6672205164512028
182 0.08174829399692966 -3.893593781130099 0.9764961771017742
46 -2.4781563819016674 -2.840900238160734 1.203060351048094
127 -0.4445141613277873 -0.6958399102496019 -2.6214760377897224
208 -2.878426993110386 -2.9513906226077786 -0.07146979434878246
53 0.6331147623152822 2.35240672486708 -3.0082714844174294
51 0.4603151433279106 1.6766674994405129 -0.6477212371691671
47 2.0154463194157977 1.9910387934375637 -4.300922596696
134 -3.158648075733135 1.1799104352884906 -0.6246743670383013
132 4.845975991606907 1.0452516721237337 1.0698897890190375
128 2.4900768853067494 -2.2503657226588825 3.6034802351663524
215 1.2438661419853545 -1.6340595605113502 2.502324961424216
213 -1.053104326517172 2.1786044902468467 -0.25226106887273997
209 0.41887083118337964 2.061498764037742 0.5122162552970723
73 -3.019087148557809 -0.13613858213949556 2.3000280046108172
159 -2.754412450583184 0.9465454062587939 -2.041857443832603
154 0.2488321416173561 -1.843305843934965 -0.1412348465892435
235 -1.5052198250031592 2.4751083306923696 2.3160422504332216
80 2.240119516540025 2.1672279481680325 -1.8281520024008298
78 2.165144235777972 1.3181408288721237 -4.073216580413478
74 0.3456753456428733 -0.7950447081050733 2.462573043619871
161 0.02685039434334231 1.076804046588808 -1.197183796925833
162 -1.075923089768106 0.9738348855526864 0.33686093052689037
155 1.2923880663660134 0.913999052688491 2.2036251621676786
242 1.0791105015736837 0.837918744824786 1.1882688682058928
240 2.5381676832188473 1.04603717820656 2.4213620328959786
243 0.8484330205963422 0.4227019564614461 -1.013471554446855
236 -0.41575589988945216 2.7122216360055647 -0.18872894149743807
9 -0.474834601217173 -1.2697838662582872 1.4679817037779823
21 0.4545982612299161 -2.13115531092424 -1.9531444720396305
102 1.1132199314272828 3.0196250766992723 -2.2944187577949315
106 -1.4744997457873137 3.126730200973374 -0.48780178013195635
183 -0.01704707334081026 3.8274620870162948 0.45795487450983596
22 -0.40929572348287296 -2.8031612827388486 0.19248795188146106
52 -1.4231861775572596 1.6727856242901433 0.6714958670881244
23 0.4974130060115431 -2.487080942524479 2.2475076350994776
103 -3.4134649082511808 0.355833062317124 2.0983298405446407
133 -1.6729860420962233 1.5892434488977918 0.42260058927001143
104 -2.0560419818011355 1.9646416646067857 -2.2240522161171015
184 0.19813885595615577 0.03961305225233065 0.45950747545913134