(written by ASE)

9 atoms
2 atom types

0.0      5.0897698356096397  xlo xhi
0.0      4.4347782428129348  ylo yhi
0.0      5.5165746421431345  zlo zhi
    -2.5604204122842638                       0                       0  xy xz yz

Atoms # atomic

     1   1      3.3776410251842881     0.68320043072906445      2.5711375829016894
     2   1      2.7868808762373116      2.5237318270202245     0.72625078614559258
     3   1      1.4885514987517336      1.0918446598547202       4.416101101456686
     4   1     -1.0545441904793496       3.242233272299774      2.9788344967843856
     5   1     0.83533606426994067      3.6503355192402349       4.823254982581429
     6   1     0.24435828381096819      1.8102157662446106      1.1340581032989396
     7   2    -0.12759743033312126      4.3997587151446833      3.6974574158201117
     8   2      3.8858326946540585      2.0646739259908435      1.8525941806031503
     9   2      1.3387622034483142      2.2691739580006822      5.5242838405692671
