(written by ASE)

243 atoms
2 atom types

0.0      15.245999999999976  xlo xhi
0.0      13.203423306097529  ylo yhi
0.0      16.583100000000002  zlo zhi
    -7.6229999999999878                       0                       0  xy xz yz

Masses

     1      15.998999995884349 # O
     2      28.084999992775295 # Si

Atoms # atomic

     1   1      3.3641093062499947      0.7096867754216365      2.5522482067980001
     2   1      2.7853385706299951      2.5585607326093207     0.70968154013133344
     3   1      1.4735521231199979      1.1328935940015521       4.394814873464667
     4   1     -1.0674478768799982      3.2682475080309574      2.9754517932020006
     5   1     0.82310930624999867      3.6914543266108728      4.8180184598686671
     6   1     0.24433857062999942      1.8425803694231888      1.1328851265353332
     7   2      2.4188307019799966 -1.1102230246251565e-16      3.6851333333333334
     8   2     -1.2094153509899983      2.0947688353684235      1.8425666666666662
     9   2      1.3315846490099978      2.3063722666640865                       0
    10   1      3.3641093062499947      0.7096867754216365      8.0799482067980009
    11   1      2.7853385706299951      2.5585607326093207      6.2373815401313335
    12   1      1.4735521231199979      1.1328935940015521      9.9225148734646673
    13   1     -1.0674478768799982      3.2682475080309574      8.5031517932020009
    14   1     0.82310930624999867      3.6914543266108728      10.345718459868667
    15   1     0.24433857062999942      1.8425803694231888      6.6605851265353335
    16   2      2.4188307019799966 -1.1102230246251565e-16      9.2128333333333341
    17   2     -1.2094153509899983      2.0947688353684235      7.3702666666666667
    18   2      1.3315846490099978      2.3063722666640865      5.5277000000000003
    19   1      3.3641093062499947      0.7096867754216365         13.607648206798
    20   1      2.7853385706299951      2.5585607326093207      11.765081540131334
    21   1      1.4735521231199979      1.1328935940015521      15.450214873464667
    22   1     -1.0674478768799982      3.2682475080309574         14.030851793202
    23   1     0.82310930624999867      3.6914543266108728      15.873418459868667
    24   1     0.24433857062999942      1.8425803694231888      12.188285126535334
    25   2      2.4188307019799966 -1.1102230246251565e-16      14.740533333333333
    26   2     -1.2094153509899983      2.0947688353684235      12.897966666666667
    27   2      1.3315846490099978      2.3063722666640865      11.055400000000001
    28   1     0.82310930624999878      5.1108278774541462      2.5522482067980001
    29   1      0.2443385706299992      6.9597018346418302     0.70968154013133344
    30   1      -1.067447876879998      5.5340346960340616       4.394814873464667
    31   1     -3.6084478768799944      7.6693886100634669      2.9754517932020006
    32   1     -1.7178906937499971      8.0925954286433814      4.8180184598686671
    33   1     -2.2966614293699967      6.2437214714556983      1.1328851265353332
    34   2    -0.12216929801999932      4.4011411020325095      3.6851333333333334
    35   2     -3.7504153509899942       6.495909937400933      1.8425666666666662
    36   2     -1.2094153509899981      6.7075133686965955                       0
    37   1     0.82310930624999878      5.1108278774541462      8.0799482067980009
    38   1      0.2443385706299992      6.9597018346418302      6.2373815401313335
    39   1      -1.067447876879998      5.5340346960340616      9.9225148734646673
    40   1     -3.6084478768799944      7.6693886100634669      8.5031517932020009
    41   1     -1.7178906937499971      8.0925954286433814      10.345718459868667
    42   1     -2.2966614293699967      6.2437214714556983      6.6605851265353335
    43   2    -0.12216929801999932      4.4011411020325095      9.2128333333333341
    44   2     -3.7504153509899942       6.495909937400933      7.3702666666666667
    45   2     -1.2094153509899981      6.7075133686965955      5.5277000000000003
    46   1     0.82310930624999878      5.1108278774541462         13.607648206798
    47   1      0.2443385706299992      6.9597018346418302      11.765081540131334
    48   1      -1.067447876879998      5.5340346960340616      15.450214873464667
    49   1     -3.6084478768799944      7.6693886100634669         14.030851793202
    50   1     -1.7178906937499971      8.0925954286433814      15.873418459868667
    51   1     -2.2966614293699967      6.2437214714556983      12.188285126535334
    52   2    -0.12216929801999932      4.4011411020325095      14.740533333333333
    53   2     -3.7504153509899942       6.495909937400933      12.897966666666667
    54   2     -1.2094153509899981      6.7075133686965955      11.055400000000001
    55   1     -1.7178906937499971      9.5119689794866549      2.5522482067980001
    56   1     -2.2966614293699967       11.36084293667434     0.70968154013133344
    57   1     -3.6084478768799939      9.9351757980665703       4.394814873464667
    58   1     -6.1494478768799903      12.070529712095976      2.9754517932020006
    59   1     -4.2588906937499935      12.493736530675893      4.8180184598686671
    60   1     -4.8376614293699927      10.644862573488208      1.1328851265353332
    61   2     -2.6631692980199952       8.802282204065019      3.6851333333333334
    62   2     -6.2914153509899897      10.897051039433443      1.8425666666666662
    63   2     -3.7504153509899938      11.108654470729105                       0
    64   1     -1.7178906937499971      9.5119689794866549      8.0799482067980009
    65   1     -2.2966614293699967       11.36084293667434      6.2373815401313335
    66   1     -3.6084478768799939      9.9351757980665703      9.9225148734646673
    67   1     -6.1494478768799903      12.070529712095976      8.5031517932020009
    68   1     -4.2588906937499935      12.493736530675893      10.345718459868667
    69   1     -4.8376614293699927      10.644862573488208      6.6605851265353335
    70   2     -2.6631692980199952       8.802282204065019      9.2128333333333341
    71   2     -6.2914153509899897      10.897051039433443      7.3702666666666667
    72   2     -3.7504153509899938      11.108654470729105      5.5277000000000003
    73   1     -1.7178906937499971      9.5119689794866549         13.607648206798
    74   1     -2.2966614293699967       11.36084293667434      11.765081540131334
    75   1     -3.6084478768799939      9.9351757980665703      15.450214873464667
    76   1     -6.1494478768799903      12.070529712095976         14.030851793202
    77   1     -4.2588906937499935      12.493736530675893      15.873418459868667
    78   1     -4.8376614293699927      10.644862573488208      12.188285126535334
    79   2     -2.6631692980199952       8.802282204065019      14.740533333333333
    80   2     -6.2914153509899897      10.897051039433443      12.897966666666667
    81   2     -3.7504153509899938      11.108654470729105      11.055400000000001
    82   1       8.446109306249987      0.7096867754216365      2.5522482067980001
    83   1       7.867338570629987      2.5585607326093207     0.70968154013133344
    84   1      6.5555521231199894      1.1328935940015521       4.394814873464667
    85   1      4.0145521231199934      3.2682475080309574      2.9754517932020006
    86   1      5.9051093062499902      3.6914543266108728      4.8180184598686671
    87   1      5.3263385706299911      1.8425803694231888      1.1328851265353332
    88   2      7.5008307019799885 -1.1102230246251565e-16      3.6851333333333334
    89   2      3.8725846490099936      2.0947688353684235      1.8425666666666662
    90   2      6.4135846490099899      2.3063722666640865                       0
    91   1       8.446109306249987      0.7096867754216365      8.0799482067980009
    92   1       7.867338570629987      2.5585607326093207      6.2373815401313335
    93   1      6.5555521231199894      1.1328935940015521      9.9225148734646673
    94   1      4.0145521231199934      3.2682475080309574      8.5031517932020009
    95   1      5.9051093062499902      3.6914543266108728      10.345718459868667
    96   1      5.3263385706299911      1.8425803694231888      6.6605851265353335
    97   2      7.5008307019799885 -1.1102230246251565e-16      9.2128333333333341
    98   2      3.8725846490099936      2.0947688353684235      7.3702666666666667
    99   2      6.4135846490099899      2.3063722666640865      5.5277000000000003
   100   1       8.446109306249987      0.7096867754216365         13.607648206798
   101   1       7.867338570629987      2.5585607326093207      11.765081540131334
   102   1      6.5555521231199894      1.1328935940015521      15.450214873464667
   103   1      4.0145521231199934      3.2682475080309574         14.030851793202
   104   1      5.9051093062499902      3.6914543266108728      15.873418459868667
   105   1      5.3263385706299911      1.8425803694231888      12.188285126535334
   106   2      7.5008307019799885 -1.1102230246251565e-16      14.740533333333333
   107   2      3.8725846490099936      2.0947688353684235      12.897966666666667
   108   2      6.4135846490099899      2.3063722666640865      11.055400000000001
   109   1      5.9051093062499902      5.1108278774541462      2.5522482067980001
   110   1      5.3263385706299911      6.9597018346418302     0.70968154013133344
   111   1      4.0145521231199943      5.5340346960340616       4.394814873464667
   112   1      1.4735521231199977      7.6693886100634669      2.9754517932020006
   113   1      3.3641093062499947      8.0925954286433814      4.8180184598686671
   114   1      2.7853385706299951      6.2437214714556983      1.1328851265353332
   115   2      4.9598307019799925      4.4011411020325095      3.6851333333333334
   116   2      1.3315846490099976       6.495909937400933      1.8425666666666662
   117   2       3.872584649009994      6.7075133686965955                       0
   118   1      5.9051093062499902      5.1108278774541462      8.0799482067980009
   119   1      5.3263385706299911      6.9597018346418302      6.2373815401313335
   120   1      4.0145521231199943      5.5340346960340616      9.9225148734646673
   121   1      1.4735521231199977      7.6693886100634669      8.5031517932020009
   122   1      3.3641093062499947      8.0925954286433814      10.345718459868667
   123   1      2.7853385706299951      6.2437214714556983      6.6605851265353335
   124   2      4.9598307019799925      4.4011411020325095      9.2128333333333341
   125   2      1.3315846490099976       6.495909937400933      7.3702666666666667
   126   2       3.872584649009994      6.7075133686965955      5.5277000000000003
   127   1      5.9051093062499902      5.1108278774541462         13.607648206798
   128   1      5.3263385706299911      6.9597018346418302      11.765081540131334
   129   1      4.0145521231199943      5.5340346960340616      15.450214873464667
   130   1      1.4735521231199977      7.6693886100634669         14.030851793202
   131   1      3.3641093062499947      8.0925954286433814      15.873418459868667
   132   1      2.7853385706299951      6.2437214714556983      12.188285126535334
   133   2      4.9598307019799925      4.4011411020325095      14.740533333333333
   134   2      1.3315846490099976       6.495909937400933      12.897966666666667
   135   2       3.872584649009994      6.7075133686965955      11.055400000000001
   136   1      3.3641093062499947      9.5119689794866549      2.5522482067980001
   137   1      2.7853385706299951       11.36084293667434     0.70968154013133344
   138   1      1.4735521231199979      9.9351757980665703       4.394814873464667
   139   1     -1.0674478768799982      12.070529712095976      2.9754517932020006
   140   1     0.82310930624999867      12.493736530675893      4.8180184598686671
   141   1     0.24433857062999942      10.644862573488208      1.1328851265353332
   142   2      2.4188307019799966       8.802282204065019      3.6851333333333334
   143   2     -1.2094153509899983      10.897051039433443      1.8425666666666662
   144   2      1.3315846490099978      11.108654470729105                       0
   145   1      3.3641093062499947      9.5119689794866549      8.0799482067980009
   146   1      2.7853385706299951       11.36084293667434      6.2373815401313335
   147   1      1.4735521231199979      9.9351757980665703      9.9225148734646673
   148   1     -1.0674478768799982      12.070529712095976      8.5031517932020009
   149   1     0.82310930624999867      12.493736530675893      10.345718459868667
   150   1     0.24433857062999942      10.644862573488208      6.6605851265353335
   151   2      2.4188307019799966       8.802282204065019      9.2128333333333341
   152   2     -1.2094153509899983      10.897051039433443      7.3702666666666667
   153   2      1.3315846490099978      11.108654470729105      5.5277000000000003
   154   1      3.3641093062499947      9.5119689794866549         13.607648206798
   155   1      2.7853385706299951       11.36084293667434      11.765081540131334
   156   1      1.4735521231199979      9.9351757980665703      15.450214873464667
   157   1     -1.0674478768799982      12.070529712095976         14.030851793202
   158   1     0.82310930624999867      12.493736530675893      15.873418459868667
   159   1     0.24433857062999942      10.644862573488208      12.188285126535334
   160   2      2.4188307019799966       8.802282204065019      14.740533333333333
   161   2     -1.2094153509899983      10.897051039433443      12.897966666666667
   162   2      1.3315846490099978      11.108654470729105      11.055400000000001
   163   1      13.528109306249979      0.7096867754216365      2.5522482067980001
   164   1       12.94933857062998      2.5585607326093207     0.70968154013133344
   165   1      11.637552123119981      1.1328935940015521       4.394814873464667
   166   1      9.0965521231199862      3.2682475080309574      2.9754517932020006
   167   1      10.987109306249982      3.6914543266108728      4.8180184598686671
   168   1      10.408338570629983      1.8425803694231888      1.1328851265353332
   169   2      12.582830701979979 -1.1102230246251565e-16      3.6851333333333334
   170   2      8.9545846490099859      2.0947688353684235      1.8425666666666662
   171   2      11.495584649009981      2.3063722666640865                       0
   172   1      13.528109306249979      0.7096867754216365      8.0799482067980009
   173   1       12.94933857062998      2.5585607326093207      6.2373815401313335
   174   1      11.637552123119981      1.1328935940015521      9.9225148734646673
   175   1      9.0965521231199862      3.2682475080309574      8.5031517932020009
   176   1      10.987109306249982      3.6914543266108728      10.345718459868667
   177   1      10.408338570629983      1.8425803694231888      6.6605851265353335
   178   2      12.582830701979979 -1.1102230246251565e-16      9.2128333333333341
   179   2      8.9545846490099859      2.0947688353684235      7.3702666666666667
   180   2      11.495584649009981      2.3063722666640865      5.5277000000000003
   181   1      13.528109306249979      0.7096867754216365         13.607648206798
   182   1       12.94933857062998      2.5585607326093207      11.765081540131334
   183   1      11.637552123119981      1.1328935940015521      15.450214873464667
   184   1      9.0965521231199862      3.2682475080309574         14.030851793202
   185   1      10.987109306249982      3.6914543266108728      15.873418459868667
   186   1      10.408338570629983      1.8425803694231888      12.188285126535334
   187   2      12.582830701979979 -1.1102230246251565e-16      14.740533333333333
   188   2      8.9545846490099859      2.0947688353684235      12.897966666666667
   189   2      11.495584649009981      2.3063722666640865      11.055400000000001
   190   1      10.987109306249982      5.1108278774541462      2.5522482067980001
   191   1      10.408338570629983      6.9597018346418302     0.70968154013133344
   192   1      9.0965521231199862      5.5340346960340616       4.394814873464667
   193   1      6.5555521231199894      7.6693886100634669      2.9754517932020006
   194   1       8.446109306249987      8.0925954286433814      4.8180184598686671
   195   1       7.867338570629987      6.2437214714556983      1.1328851265353332
   196   2      10.041830701979984      4.4011411020325095      3.6851333333333334
   197   2       6.413584649009989       6.495909937400933      1.8425666666666662
   198   2      8.9545846490099859      6.7075133686965955                       0
   199   1      10.987109306249982      5.1108278774541462      8.0799482067980009
   200   1      10.408338570629983      6.9597018346418302      6.2373815401313335
   201   1      9.0965521231199862      5.5340346960340616      9.9225148734646673
   202   1      6.5555521231199894      7.6693886100634669      8.5031517932020009
   203   1       8.446109306249987      8.0925954286433814      10.345718459868667
   204   1       7.867338570629987      6.2437214714556983      6.6605851265353335
   205   2      10.041830701979984      4.4011411020325095      9.2128333333333341
   206   2       6.413584649009989       6.495909937400933      7.3702666666666667
   207   2      8.9545846490099859      6.7075133686965955      5.5277000000000003
   208   1      10.987109306249982      5.1108278774541462         13.607648206798
   209   1      10.408338570629983      6.9597018346418302      11.765081540131334
   210   1      9.0965521231199862      5.5340346960340616      15.450214873464667
   211   1      6.5555521231199894      7.6693886100634669         14.030851793202
   212   1       8.446109306249987      8.0925954286433814      15.873418459868667
   213   1       7.867338570629987      6.2437214714556983      12.188285126535334
   214   2      10.041830701979984      4.4011411020325095      14.740533333333333
   215   2       6.413584649009989       6.495909937400933      12.897966666666667
   216   2      8.9545846490099859      6.7075133686965955      11.055400000000001
   217   1       8.446109306249987      9.5119689794866549      2.5522482067980001
   218   1       7.867338570629987       11.36084293667434     0.70968154013133344
   219   1      6.5555521231199894      9.9351757980665703       4.394814873464667
   220   1      4.0145521231199934      12.070529712095976      2.9754517932020006
   221   1      5.9051093062499902      12.493736530675893      4.8180184598686671
   222   1      5.3263385706299911      10.644862573488208      1.1328851265353332
   223   2      7.5008307019799885       8.802282204065019      3.6851333333333334
   224   2      3.8725846490099936      10.897051039433443      1.8425666666666662
   225   2      6.4135846490099899      11.108654470729105                       0
   226   1       8.446109306249987      9.5119689794866549      8.0799482067980009
   227   1       7.867338570629987       11.36084293667434      6.2373815401313335
   228   1      6.5555521231199894      9.9351757980665703      9.9225148734646673
   229   1      4.0145521231199934      12.070529712095976      8.5031517932020009
   230   1      5.9051093062499902      12.493736530675893      10.345718459868667
   231   1      5.3263385706299911      10.644862573488208      6.6605851265353335
   232   2      7.5008307019799885       8.802282204065019      9.2128333333333341
   233   2      3.8725846490099936      10.897051039433443      7.3702666666666667
   234   2      6.4135846490099899      11.108654470729105      5.5277000000000003
   235   1       8.446109306249987      9.5119689794866549         13.607648206798
   236   1       7.867338570629987       11.36084293667434      11.765081540131334
   237   1      6.5555521231199894      9.9351757980665703      15.450214873464667
   238   1      4.0145521231199934      12.070529712095976         14.030851793202
   239   1      5.9051093062499902      12.493736530675893      15.873418459868667
   240   1      5.3263385706299911      10.644862573488208      12.188285126535334
   241   2      7.5008307019799885       8.802282204065019      14.740533333333333
   242   2      3.8725846490099936      10.897051039433443      12.897966666666667
   243   2      6.4135846490099899      11.108654470729105      11.055400000000001
