LAMMPS data file via write_data, version 2 Aug 2023, timestep = 0, units = metal

2400 atoms
1 atom types

-0.07697037366601478 38.47997037366626 xlo xhi
-0.06728340188128357 33.32525698341663 ylo yhi
-0.062343859102025334 37.68894426362293 zlo zhi
-19.278298871040736 0.0009514592009230988 -0.0005460863260280471 xy xz yz

Masses

1 28.08499999277529

Atoms # atomic

2 1 1.8515695505638017 1.0439428468169072 0.32963208928573123 0 0 0
242 1 5.708849352458928 1.0472944819261905 0.3273715703030931 0 0 0
243 1 5.709024147154768 1.0444839519745552 2.6876359815793722 0 0 0
482 1 9.555336064275991 1.0490570094658167 0.3323268419174744 0 0 0
483 1 9.56080728931759 1.0462293705792682 2.6920917138146634 0 0 0
722 1 13.418112742412914 1.0462645335550917 0.32996382976144767 0 0 0
723 1 13.414586432449365 1.0461846182470478 2.6943273491241895 0 0 0
962 1 17.273314725558567 1.0437344321493895 0.32733685926650924 0 0 0
963 1 17.272850643224583 1.0452592605638575 2.6900882789640512 0 0 0
1203 1 21.12325387841602 1.0481155132320699 2.687877873822035 0 0 0
1202 1 21.129634652669374 1.0459573406816802 0.3246000039648126 0 0 0
1442 1 24.9866104064277 1.048585688124589 0.3258866090006934 0 0 0
1682 1 28.834906862126765 1.05136979683303 0.3292289558340155 0 0 0
1683 1 28.842456797564623 1.0463626445994831 2.6919839084941786 0 0 0
1923 1 32.69618958878215 1.0433018399308815 2.6941355166318095 0 0 0
1922 1 32.69756176230015 1.0456965947321164 0.3359821033266431 0 0 0
2162 1 36.55317620842839 1.0430833234835493 0.3278037154680035 0 0 0
2163 1 36.55265617882806 1.0486286408315053 2.6904724011338836 0 0 0
26 1 -0.07461014562634286 4.385884088766776 0.33092854610768574 0 0 0
27 1 -0.07402685702771124 4.385376389512854 2.691002145903 0 0 0
267 1 3.778792330944361 4.388966281208745 2.689966786545218 0 0 0
266 1 3.777145645561003 4.3862052251128585 0.3308153505260992 0 0 0
506 1 7.633296523778144 4.380133847170933 0.3324367549865387 0 0 0
507 1 7.630878252131584 4.385147785331475 2.6888594790668576 0 0 0
746 1 11.49316499056002 4.386473847470742 0.32973999103623786 0 0 0
747 1 11.491578786586436 4.381755870987855 2.693916347127708 0 0 0
986 1 15.34480923859866 4.386439050607517 0.3243327265585162 0 0 0
987 1 15.343536777762084 4.38317328587682 2.691271373676778 0 0 0
1226 1 19.20101386069376 4.386139078474946 0.32579372445035726 0 0 0
1227 1 19.202804063361377 4.381906068541561 2.688042462766345 0 0 0
1466 1 23.055139138337193 4.3825576482249335 0.32169790872683274 0 0 0
1467 1 23.0565900381417 4.38762330227775 2.6914583961367238 0 0 0
1707 1 26.914275694844587 4.3862064321348555 2.687843478731972 0 0 0
1706 1 26.91306779278357 4.380714640520969 0.3283663108080583 0 0 0
1946 1 30.769762091942866 4.386301935633023 0.3326382241452701 0 0 0
1947 1 30.768062133003408 4.383255247846745 2.691355125749682 0 0 0
2186 1 34.62395906714524 4.3868599009031675 0.32901998580418346 0 0 0
2187 1 34.624082277944936 4.381413427694135 2.691400507211924 0 0 0
50 1 -2.0048019070006777 7.723784508526806 0.3323577128980633 0 0 0
51 1 -2.0027970718295105 7.728027661500379 2.6941789825921085 0 0 0
290 1 1.8494676998118214 7.72150102557571 0.33170821116314314 0 0 0
291 1 1.8483969355207932 7.722136516347079 2.691964305325872 0 0 0
530 1 5.709082424559943 7.725004418225735 0.3338183750238512 0 0 0
531 1 5.707003504306406 7.721129126168846 2.6934472720820413 0 0 0
770 1 9.561557971792443 7.725804941678845 0.3314250043557735 0 0 0
1010 1 13.419123045698713 7.72274058116853 0.33036506569890917 0 0 0
1250 1 17.271296338930334 7.723977903831025 0.32575613327678593 0 0 0
1251 1 17.27545132551037 7.726622964735263 2.6899188238083753 0 0 0
1490 1 21.13138947351778 7.723356730888557 0.32809937239255577 0 0 0
1491 1 21.13075281612619 7.726758774547917 2.6886597537161365 0 0 0
1730 1 24.984542790330032 7.726602322573713 0.326784022239569 0 0 0
1731 1 24.982080583863514 7.724758842748696 2.688579841002879 0 0 0
1970 1 28.841232469771118 7.725674552418505 0.3280271094516939 0 0 0
1971 1 28.844067598370998 7.723730272407222 2.689852763678629 0 0 0
2211 1 32.69665471976814 7.727004602860766 2.690293505411632 0 0 0
2210 1 32.69659415670898 7.723931553833739 0.331603948916529 0 0 0
74 1 -3.9321715698946145 11.063953315638637 0.3286473021199702 0 0 0
75 1 -3.930609712076102 11.061546216749276 2.6938170041252656 0 0 0
314 1 -0.0743189483708411 11.063536391078065 0.33303527266416283 0 0 0
315 1 -0.07705060250194 11.062037667193392 2.696832708883314 0 0 0
554 1 3.783014338574847 11.068445291570601 0.32863445956889703 0 0 0
795 1 7.631913350912485 11.060476466406918 2.6813923761735445 0 0 0
794 1 7.6322029028675695 11.064936906265562 0.32721739673638883 0 0 0
1034 1 11.487203506443798 11.064833249039802 0.3281117082974865 0 0 0
1035 1 11.492799698004116 11.058537022187986 2.6902696348672093 0 0 0
1275 1 15.348083730270872 11.063846224537501 2.6924390517681287 0 0 0
1274 1 15.349417924725296 11.06204125726008 0.3259003549335798 0 0 0
1514 1 19.19914389973898 11.06365270524771 0.3336150036062527 0 0 0
1515 1 19.200643953992024 11.06446911966795 2.691679068559954 0 0 0
1754 1 23.06036461568602 11.062289704013741 0.3290266729792748 0 0 0
1755 1 23.057208259236262 11.06054540791932 2.6906060624763555 0 0 0
1994 1 26.914396301700194 11.063264176213904 0.3262151688160526 0 0 0
1995 1 26.913942892317763 11.063730820046942 2.683925609952751 0 0 0
2234 1 30.767008815207987 11.06382599892499 0.32842680270589025 0 0 0
2235 1 30.76966849363903 11.06058017187344 2.6888482664144258 0 0 0
98 1 -5.856686758126269 14.402853295661208 0.3255697815655177 0 0 0
99 1 -5.859787597474935 14.403170414032152 2.6882276999598935 0 0 0
338 1 -2.0052085337335823 14.407332235461311 0.32647661540144446 0 0 0
339 1 -2.003734822136998 14.399433284139606 2.6899669316474575 0 0 0
578 1 1.8498925369087174 14.401750730755792 0.3285677608662798 0 0 0
818 1 5.708514785722831 14.398703111653314 0.3274347528749438 0 0 0
819 1 5.70769330031494 14.40191846336826 2.6871497415414045 0 0 0
1058 1 9.56578978793496 14.405228930088164 0.3254734823936641 0 0 0
1059 1 9.565394442474474 14.405864934853815 2.683640426643686 0 0 0
1298 1 13.415402666608877 14.407009444833115 0.32940423871465485 0 0 0
1299 1 13.416406294957397 14.403362444959585 2.6875139948166473 0 0 0
1538 1 17.27190014844503 14.40179900506514 0.3309401860862929 0 0 0
1539 1 17.278570906566195 14.401406490017534 2.6927231639945908 0 0 0
1779 1 21.129268622666878 14.404320616110548 2.6954461264284326 0 0 0
1778 1 21.13323433761318 14.403934426016548 0.3315175915181923 0 0 0
2018 1 24.98489320932914 14.400989190309257 0.33204048885126375 0 0 0
2019 1 24.98309092557976 14.405344858627078 2.688893290264835 0 0 0
2258 1 28.84084679565055 14.400491175147662 0.3296224492938178 0 0 0
2259 1 28.840178638098465 14.405467576140051 2.6846794010142667 0 0 0
122 1 -7.788473396082021 17.74301956125236 0.3272240061457021 0 0 0
123 1 -7.789127251828654 17.739805729143313 2.684960161436687 0 0 0
362 1 -3.928702221638809 17.741112007087636 0.32481907457647596 0 0 0
602 1 -0.0805510546852355 17.741061130682976 0.32629963970164555 0 0 0
603 1 -0.07612789075344549 17.739999293990287 2.6894767337085956 0 0 0
842 1 3.7808244502350075 17.742663684042768 0.3285301773795913 0 0 0
843 1 3.7817538165258293 17.743956204201357 2.6918149689379067 0 0 0
1082 1 7.636347379632513 17.740757492615955 0.33043882563949134 0 0 0
1083 1 7.6348148467474894 17.743272118251916 2.6906928412776403 0 0 0
1322 1 11.488416919488861 17.73722201270384 0.32838239612048514 0 0 0
1323 1 11.487419278139683 17.739830299817427 2.689479020539049 0 0 0
1562 1 15.350748973364174 17.742204947320037 0.3253390769593635 0 0 0
1563 1 15.349325177444149 17.743574647099486 2.6918918543002786 0 0 0
1803 1 19.20203616596984 17.741892321535808 2.689215670044738 0 0 0
1802 1 19.198261475825994 17.74375327838794 0.3331172043857895 0 0 0
2042 1 23.0572101523077 17.739707706727053 0.3311925487049852 0 0 0
2282 1 26.9160865579346 17.74175326224093 0.32803444435874257 0 0 0
2283 1 26.914304381430462 17.73923305534635 2.6881397197274874 0 0 0
146 1 -9.716156978019415 21.07980764254707 0.3301519367314005 0 0 0
387 1 -5.860103511869287 21.081119080724186 2.690109674233119 0 0 0
626 1 -2.0024043309147705 21.077821679673225 0.3290274590699817 0 0 0
627 1 -2.000039480448041 21.081193999953435 2.6870133800777682 0 0 0
866 1 1.853694463045466 21.084169728509035 0.328668446079384 0 0 0
867 1 1.850762479402338 21.08238935312859 2.691124941199747 0 0 0
1347 1 9.564030785882137 21.08205519977046 2.693931752875903 0 0 0
1346 1 9.5633572226466 21.080079302146704 0.33321986476354704 0 0 0
1587 1 13.420140902924292 21.087497600323438 2.6941676281611278 0 0 0
1586 1 13.418606169578652 21.081647818287657 0.3316775452256729 0 0 0
1827 1 17.270632704346625 21.080985634485423 2.6863323712402956 0 0 0
1826 1 17.274046586136024 21.077058301685984 0.33132914264317076 0 0 0
2067 1 21.12898387615659 21.080198590638105 2.6895003932879904 0 0 0
147 1 -9.714195089862184 21.08140600975699 2.6839771087874853 0 0 0
386 1 -5.859734652213562 21.079651629986337 0.3270788936659106 0 0 0
1106 1 5.705822649303773 21.08085593049118 0.3318249139433943 0 0 0
1107 1 5.707583467231051 21.079076152133684 2.691496534178719 0 0 0
1851 1 15.342573537846212 24.41648614906278 2.692073281852095 0 0 0
2066 1 21.12935874981277 21.084438717382508 0.32657740438289695 0 0 0
2306 1 24.985919106167547 21.083321005358425 0.32853722616872544 0 0 0
2307 1 24.983954889303664 21.081690984793344 2.6867671259554444 0 0 0
170 1 -11.644296562046195 24.4190371875548 0.3320960504419374 0 0 0
171 1 -11.644151588489214 24.42415329902548 2.690159924772561 0 0 0
410 1 -7.786598845432957 24.419541379615847 0.32924915632175733 0 0 0
411 1 -7.788315246189947 24.420335315334256 2.6920031038466328 0 0 0
650 1 -3.930121513741594 24.42178228464476 0.3283764075587858 0 0 0
651 1 -3.9314748132542556 24.419644112993247 2.686839968462355 0 0 0
890 1 -0.07556366414803978 24.420864007944402 0.3276097896509172 0 0 0
891 1 -0.07683631762100938 24.418179677731697 2.6884897886351298 0 0 0
1130 1 3.7797742327813535 24.420783253398273 0.32774790527011255 0 0 0
1370 1 7.635298208609426 24.422836543767385 0.33493958609638697 0 0 0
1371 1 7.638040716156918 24.42294609777858 2.695414594998617 0 0 0
1610 1 11.487735735727128 24.419651724048116 0.337573389785214 0 0 0
1611 1 11.488412614831308 24.417935454528166 2.6937223721517727 0 0 0
1850 1 15.350743631732572 24.421260699151603 0.32787551507443546 0 0 0
2090 1 19.202113911980213 24.421792272366666 0.32345687292003616 0 0 0
2091 1 19.206049565532304 24.42057669787604 2.6856372593226303 0 0 0
2330 1 23.05643109641413 24.4196979342589 0.3289132135588589 0 0 0
2331 1 23.056456365647435 24.421585882556784 2.6872512034544362 0 0 0
194 1 -13.567324572183649 27.75822437392373 0.3320331256170133 0 0 0
195 1 -13.566604320834308 27.75846842841647 2.6918064017659544 0 0 0
434 1 -9.717953589324322 27.759125963815002 0.3388475985004849 0 0 0
674 1 -5.856646915067698 27.75897114094369 0.32980189982279573 0 0 0
915 1 -2.006072744866782 27.75743406040663 2.6837583534381872 0 0 0
914 1 -2.0043816940145343 27.759735452936464 0.3224865689889492 0 0 0
1154 1 1.8499728033528406 27.760912211578365 0.325770483203058 0 0 0
1155 1 1.8546197547831407 27.759716657141517 2.6880649634090243 0 0 0
1394 1 5.704344108113293 27.757340533329472 0.3320929214479735 0 0 0
1395 1 5.7087135026183 27.760968076428036 2.6942259369840307 0 0 0
1634 1 9.566558037135723 27.759715684411773 0.335525498828446 0 0 0
1874 1 13.419664212294942 27.76643759847451 0.32951720100251836 0 0 0
1875 1 13.413607020504733 27.759582655693908 2.6895213645345786 0 0 0
2114 1 17.27747865499402 27.761359477539497 0.32019948797438824 0 0 0
2355 1 21.128416612684575 27.75698310737356 2.6875654832521763 0 0 0
2354 1 21.123427534875663 27.760095084649706 0.32522863273553715 0 0 0
218 1 -15.50226939431865 31.102150649993362 0.32748618107816113 0 0 0
219 1 -15.50050534643558 31.100127956492877 2.6890149861636283 0 0 0
458 1 -11.64714754401456 31.09868579720141 0.33391660494406333 0 0 0
698 1 -7.786009453632122 31.0974338369354 0.33187707225662016 0 0 0
699 1 -7.789028517734213 31.096732311546777 2.697104120018037 0 0 0
938 1 -3.9321215288810807 31.09516260830121 0.32612404303107034 0 0 0
939 1 -3.9338707451726824 31.100485778582772 2.688962655477494 0 0 0
1178 1 -0.07625166502080921 31.09707066879736 0.32420934008755503 0 0 0
1179 1 -0.07680756400476571 31.101375567011978 2.685741837673946 0 0 0
1419 1 3.7805097109195156 31.096564564777697 2.6884486687300266 0 0 0
1418 1 3.779621324485349 31.100424884244568 0.32796675882578685 0 0 0
1658 1 7.631653499381182 31.10110484299084 0.3326019508105837 0 0 0
1659 1 7.633705601126144 31.09825551714982 2.6966538173861307 0 0 0
1898 1 11.494538720762336 31.095415016952874 0.33452887413404925 0 0 0
1899 1 11.494319982258979 31.09793864063507 2.6928789163598945 0 0 0
2138 1 15.347407003830877 31.096507442324494 0.32315096628082357 0 0 0
2139 1 15.340501680635303 31.102480889474414 2.686617980924299 0 0 0
2378 1 19.20297163914951 31.09594929386354 0.32342061593201954 0 0 0
2379 1 19.206032077967134 31.10027075124266 2.6791650815457353 0 0 0
1 1 -0.07472482144647395 2.160384684661823 3.478182862120389 0 0 0
3 1 1.8482231288019764 1.0435690789247878 2.686498245929525 0 0 0
241 1 3.7752681340622964 2.160663966697704 3.4730028712563867 0 0 0
481 1 7.635371601352997 2.1618297582043993 3.4716262783212515 0 0 0
484 1 7.63282121682197 2.155448017757048 5.833831288938859 0 0 0
721 1 11.487688998017465 2.1567291147364536 3.4768190699543187 0 0 0
961 1 15.34509763081187 2.155220663070153 3.4801946364010385 0 0 0
1201 1 19.198967060376628 2.1598501319069228 3.4805267242076363 0 0 0
1204 1 19.19957731964825 2.1594597316705877 5.836106972336341 0 0 0
1441 1 23.057220377889404 2.1563523404795832 3.4816552989330525 0 0 0
1443 1 24.986572966799265 1.0434852008330722 2.6858241971568826 0 0 0
1681 1 26.9128886015902 2.161095413261915 3.4761376490497224 0 0 0
1921 1 30.771911977184974 2.1579946576004443 3.4714901704836714 0 0 0
2161 1 34.62057116740733 2.155613812132833 3.4770886518178608 0 0 0
2164 1 34.62393493841199 2.15563386443892 5.834578109864495 0 0 0
25 1 -2.002611764543179 5.498962747026955 3.472361661702987 0 0 0
28 1 -2.004100919176202 5.496619546340375 5.835547959055966 0 0 0
265 1 1.8512537960069444 5.498613516271816 3.4730116627419827 0 0 0
505 1 5.707518638201443 5.498338972050226 3.4734578661257425 0 0 0
745 1 9.55862733963842 5.498341687505381 3.4694106428771088 0 0 0
985 1 13.415447340282565 5.50236754131938 3.4771235648788292 0 0 0
1225 1 17.275779599892378 5.496458811726704 3.480255555149281 0 0 0
1228 1 17.273379719620053 5.498631323967739 5.841485542315741 0 0 0
1465 1 21.124302104574568 5.501525465242664 3.4794280606753336 0 0 0
1705 1 24.987302131766658 5.499656481750373 3.478588504121777 0 0 0
1945 1 28.841545609532712 5.498123372320974 3.4760302755031947 0 0 0
2185 1 32.69506800889628 5.4988659166550224 3.4700729018523204 0 0 0
49 1 -3.9329293407544577 8.836202360034113 3.4729915532540825 0 0 0
289 1 -0.0756962125819616 8.837675236647797 3.474055408957403 0 0 0
292 1 -0.07635091047480354 8.837751499196413 5.830922580474626 0 0 0
529 1 3.7788525673142193 8.835237540707006 3.4738116616600947 0 0 0
771 1 9.564065953721979 7.72548895219656 2.6914916232322965 0 0 0
769 1 7.634357697216917 8.835194104902529 3.4730207474588526 0 0 0
1009 1 11.492403884757502 8.833924732189073 3.475508156369543 0 0 0
1011 1 13.412787227229867 7.725065471274209 2.686968590880805 0 0 0
1249 1 15.340788002672543 8.83595672263875 3.4741275821760533 0 0 0
1489 1 19.205306616908327 8.841835741596277 3.476213182439891 0 0 0
1729 1 23.05480584105565 8.835990242986956 3.479832659279047 0 0 0
1732 1 23.05859569295339 8.836951279629817 5.8374699240493095 0 0 0
1969 1 26.914074501028878 8.83465928184718 3.477228536031799 0 0 0
2209 1 30.770814642086176 8.837189022266964 3.478051659538253 0 0 0
73 1 -5.860494040272252 12.173966197790401 3.477931022905419 0 0 0
555 1 3.7784077165444416 11.063719882047199 2.69087341784571 0 0 0
553 1 1.849783974282325 12.17513262107236 3.476956510137551 0 0 0
793 1 5.7091736957177375 12.17585214366627 3.475440415887566 0 0 0
1753 1 21.126723680222874 12.174143768382972 3.474671606002774 0 0 0
76 1 -5.861086349603057 12.178284651090264 5.837085738515962 0 0 0
313 1 -2.0020117324779267 12.175572080191927 3.4766645477159583 0 0 0
579 1 1.8518487823648848 14.400946359939839 2.6907071271863168 0 0 0
1033 1 9.561627137131605 12.175113323391036 3.4706664467603052 0 0 0
1273 1 13.41777079292714 12.178345801485602 3.4773599773153268 0 0 0
1513 1 17.27718986429571 12.176650395020442 3.4749965503588642 0 0 0
1993 1 24.98574851956741 12.180474899221988 3.474013758328438 0 0 0
2233 1 28.843415248569983 12.178311881769048 3.472102202402294 0 0 0
97 1 -7.790950888250975 15.515691197436325 3.4792185210995923 0 0 0
100 1 -7.784431743188485 15.515558412635325 5.838664729298103 0 0 0
363 1 -3.9297762957773026 17.742148551905256 2.6854917117558825 0 0 0
337 1 -3.9297898926782686 15.513894711179388 3.4781769747885174 0 0 0
577 1 -0.07635637944473092 15.513794218921465 3.4789791060428046 0 0 0
817 1 3.779722419068846 15.51451071252962 3.478982359152092 0 0 0
1057 1 7.63405829976221 15.517331524582454 3.4761057342614907 0 0 0
1297 1 11.49217506082058 15.516114204057537 3.477904630674881 0 0 0
1537 1 15.346576792210035 15.510727969308851 3.479055000040633 0 0 0
1777 1 19.20184175472191 15.517970533620154 3.475274781914039 0 0 0
2043 1 23.05531841286497 17.740360201043863 2.689770190261255 0 0 0
2017 1 23.05828733349007 15.516685265673393 3.474624149348502 0 0 0
2257 1 26.91234499032746 15.514738264356598 3.4734097010021947 0 0 0
121 1 -9.714733226588326 18.854313359602045 3.4729081534548483 0 0 0
361 1 -5.860731758608477 18.85171177328447 3.47818226448433 0 0 0
364 1 -5.859803317433502 18.854252228399545 5.842172100267093 0 0 0
601 1 -2.0024641758595125 18.855985324594663 3.476412749763449 0 0 0
841 1 1.853162554850278 18.85719173104386 3.4798495568923378 0 0 0
1081 1 5.709419622707466 18.85550616052099 3.4787467161911603 0 0 0
1321 1 9.563302498002516 18.855363386713318 3.4729055272665366 0 0 0
1561 1 13.414910301245207 18.85869448892982 3.4764754917025695 0 0 0
1801 1 17.279744108572935 18.85937170410969 3.4733947474670877 0 0 0
2044 1 21.13091349627126 18.853819586711218 5.834962379456059 0 0 0
2041 1 21.127912675730606 18.849453079843638 3.475254844919012 0 0 0
2281 1 24.98495949924991 18.852173808672163 3.4754723140957746 0 0 0
145 1 -11.640814180699715 22.196682962873226 3.472112829813258 0 0 0
385 1 -7.788520813876251 22.19302508048905 3.4778442967557464 0 0 0
625 1 -3.927050497663144 22.19345897782282 3.4779197478232904 0 0 0
628 1 -3.9344743981122376 22.191640198922308 5.837568636767511 0 0 0
865 1 -0.07606709476644921 22.19346088492359 3.476244841012719 0 0 0
1105 1 3.7805056686471357 22.193529314094107 3.4773127299962137 0 0 0
1345 1 7.634457936433447 22.194760577500848 3.474517653232221 0 0 0
1585 1 11.491463219202881 22.196602027727167 3.4714051748915336 0 0 0
1825 1 15.347909962134034 22.190754205469265 3.4793973091379073 0 0 0
1828 1 15.346468737477426 22.19666293354684 5.83654979864558 0 0 0
2065 1 19.19775926376506 22.193120636839975 3.476886113958293 0 0 0
2068 1 19.198501924393433 22.19668530883741 5.83815000053641 0 0 0
2305 1 23.058243339249074 22.19804330932904 3.476887107581338 0 0 0
169 1 -13.572211652512218 25.531595618405483 3.4723231919406348 0 0 0
409 1 -9.71645941133347 25.537558944922395 3.4709301536717567 0 0 0
649 1 -5.8595994980528365 25.532321653061736 3.4770348229619956 0 0 0
889 1 -2.005484564114963 25.531226819214627 3.477675919413664 0 0 0
1129 1 1.850442955469605 25.533587184497726 3.477653330426865 0 0 0
1131 1 3.781392928742246 24.419390923765096 2.6892475329316534 0 0 0
1369 1 5.708725167060786 25.534293854499044 3.475150265704762 0 0 0
1609 1 9.565443160699267 25.533048214951023 3.4676838470226 0 0 0
1849 1 13.413004274143509 25.533133363546977 3.4782769879984894 0 0 0
1852 1 13.422576318084333 25.537165771138497 5.834920298708757 0 0 0
2089 1 17.275571409295576 25.53221297662162 3.481945355918114 0 0 0
2329 1 21.1333565081045 25.533197048021382 3.480800602477634 0 0 0
2332 1 21.129238183050663 25.53240379705514 5.838816733480987 0 0 0
193 1 -15.498805806420208 28.872556465918997 3.47551516844439 0 0 0
433 1 -11.640370700522993 28.871656541471324 3.4694607952172087 0 0 0
435 1 -9.717556362599383 27.761633491967483 2.696698582056664 0 0 0
673 1 -7.794135292517349 28.869784439883457 3.47488957414577 0 0 0
675 1 -5.864147587613473 27.75980155838031 2.690717248380284 0 0 0
913 1 -3.934216594291663 28.873330246652642 3.4779691486743927 0 0 0
1153 1 -0.07532363484627426 28.872668709422808 3.476360113900179 0 0 0
1156 1 -0.07484684604746777 28.867399408068803 5.84200589285962 0 0 0
1393 1 3.780997997364105 28.87320732930445 3.4805618585740508 0 0 0
1396 1 3.7782968606673353 28.87204857095579 5.838214742398044 0 0 0
1633 1 7.636944016524195 28.871629176401505 3.4736441492940644 0 0 0
1635 1 9.564229777194853 27.760028419393617 2.6933163534988185 0 0 0
1873 1 11.489129927180304 28.874564412111095 3.4708660519223606 0 0 0
1876 1 11.496464508333704 28.872705233692006 5.832087419100957 0 0 0
2113 1 15.34574363915273 28.872844573596797 3.4791629100947215 0 0 0
2116 1 15.347380071301 28.869409712513228 5.8424842027388735 0 0 0
2115 1 17.27587378488076 27.76054241060171 2.679257030886884 0 0 0
2353 1 19.203544855046157 28.875228462384054 3.480004368175437 0 0 0
217 1 -17.428344331398748 32.212949383947176 3.4778423060806003 0 0 0
457 1 -13.570536675929326 32.20940008532168 3.4754376766977253 0 0 0
459 1 -11.642391690122894 31.094085247805875 2.693931240103273 0 0 0
697 1 -9.717023336991959 32.212178464005824 3.473714200096551 0 0 0
937 1 -5.860427804071289 32.21277588545829 3.4760583714465665 0 0 0
1177 1 -2.005042120511779 32.212135467505924 3.4778589326449696 0 0 0
1417 1 1.8519163888512755 32.21146492863922 3.4761426516537943 0 0 0
1657 1 5.705670158603815 32.211694410925745 3.480204049191414 0 0 0
1897 1 9.566514272010384 32.21039096942329 3.4738371825066787 0 0 0
1900 1 9.561139492779143 32.21066231681619 5.83591824735553 0 0 0
2137 1 13.414678479441594 32.21567416965175 3.4749772437269546 0 0 0
2377 1 17.27712508622327 32.21166402257142 3.4767654029801123 0 0 0
4 1 -0.07714542092721696 2.158188659407739 5.834747926545455 0 0 0
6 1 1.8489719084803713 1.0428774159432224 6.621300503393813 0 0 0
244 1 3.7782191049194256 2.157168869191965 5.835820120807706 0 0 0
246 1 5.704527665709475 1.0415931870144408 6.625725021797817 0 0 0
486 1 9.563721015455721 1.0456586132864092 6.6205839856641155 0 0 0
724 1 11.491684155504707 2.1567390954290975 5.832601819702064 0 0 0
726 1 13.415303433225409 1.0473269732047197 6.616140915213931 0 0 0
964 1 15.344074980635188 2.1584373278107076 5.836265859788765 0 0 0
966 1 17.272592482546166 1.0486444160325463 6.6165056519595815 0 0 0
1444 1 23.059150473472474 2.1586073880202465 5.843498704709729 0 0 0
1206 1 21.12765169321579 1.0496980398381663 6.620176375422717 0 0 0
1446 1 24.9837577170253 1.0442335528999556 6.620769229802326 0 0 0
1684 1 26.90974939992941 2.159442802146337 5.835678669207792 0 0 0
1686 1 28.839851535440033 1.0467865457417749 6.625161500935389 0 0 0
1924 1 30.771888302382933 2.155369728756806 5.832935684406965 0 0 0
1926 1 32.699982932735814 1.045129417664518 6.619994235667416 0 0 0
2166 1 36.55044862669327 1.0491231277823159 6.618948175624093 0 0 0
30 1 -0.07502689649263473 4.382412342636217 6.619998918554084 0 0 0
268 1 1.849648075211668 5.4965854537522025 5.8294238264329605 0 0 0
270 1 3.77941158195969 4.387441443999694 6.620440526341943 0 0 0
508 1 5.705007269993434 5.502243226860408 5.831181406206356 0 0 0
510 1 7.629567539327102 4.383612095512769 6.62450965727122 0 0 0
748 1 9.561678226081012 5.498282687168496 5.834542781375651 0 0 0
750 1 11.493658652113579 4.381548695205562 6.619421567552324 0 0 0
988 1 13.417962434596308 5.50041874860143 5.8379874647043115 0 0 0
990 1 15.345240147417286 4.383339713151073 6.618726962181389 0 0 0
1230 1 19.200654311659314 4.38237666421899 6.6157984477225815 0 0 0
1468 1 21.12829358944867 5.497104949647485 5.837690713719956 0 0 0
1470 1 23.057778002861408 4.386313723526511 6.618061740694585 0 0 0
1708 1 24.985526215799446 5.499248028963138 5.839871527852655 0 0 0
1710 1 26.911708687846108 4.386985999695014 6.6227917985139255 0 0 0
1948 1 28.83884639273612 5.501595025451921 5.835400351700081 0 0 0
2188 1 32.69933516521704 5.498815636936201 5.835457831301917 0 0 0
1950 1 30.76672725830149 4.385101475467938 6.623463022396619 0 0 0
2190 1 34.62624117732211 4.379248111542552 6.624610781690153 0 0 0
52 1 -3.9339101804455034 8.837430987113537 5.832909780436754 0 0 0
54 1 -2.0032353759615638 7.72604000738587 6.623081086997406 0 0 0
294 1 1.8521609035875417 7.722151190123084 6.6199846379561045 0 0 0
532 1 3.7815550666797746 8.835360420302068 5.834430579757086 0 0 0
534 1 5.705429662444601 7.723271525777269 6.625782640663284 0 0 0
772 1 7.630426584399995 8.835855579291097 5.834906433007123 0 0 0
774 1 9.563073979921525 7.727515132072566 6.623704890435561 0 0 0
1012 1 11.492835286977577 8.837534942889434 5.833258741013835 0 0 0
1014 1 13.416346733395741 7.72476226187363 6.619933196142696 0 0 0
1252 1 15.344014766871732 8.833231351216982 5.837695516010995 0 0 0
1254 1 17.274401782736913 7.72449618155158 6.624459226783439 0 0 0
1492 1 19.202638949435663 8.835047284949493 5.837337560702457 0 0 0
1494 1 21.131561309006386 7.725390571990928 6.614640139008886 0 0 0
1734 1 24.98323665171656 7.722999020616899 6.618213523953212 0 0 0
1972 1 26.91282487135283 8.834105902172388 5.840845947743381 0 0 0
1974 1 28.842973131663786 7.726384374620346 6.62195614143204 0 0 0
2212 1 30.76774076854438 8.835515124660708 5.835097748483133 0 0 0
2214 1 32.693627704078374 7.7287902988811465 6.624239178669849 0 0 0
316 1 -2.00487868310755 12.178409672163463 5.834970578898076 0 0 0
78 1 -3.932697068262883 11.064506141967879 6.616449727281317 0 0 0
318 1 -0.07566880637576967 11.064704049853784 6.61874000894917 0 0 0
556 1 1.8504807390854214 12.178565293659455 5.835024804494789 0 0 0
558 1 3.7811686405445752 11.065816431252857 6.619830915163065 0 0 0
798 1 7.630777184952749 11.059927582143112 6.625576482132318 0 0 0
1038 1 11.493743604691629 11.059775046675313 6.6231404683536965 0 0 0
1276 1 13.418192331062786 12.181207579631971 5.838794818296935 0 0 0
1278 1 15.34592195878946 11.063157899105875 6.618502202911103 0 0 0
1518 1 19.201596288293096 11.063047971529711 6.620008103733776 0 0 0
1758 1 23.056206390330388 11.060795366328012 6.623390775545015 0 0 0
1998 1 26.913128148112992 11.060546826537374 6.624140276291453 0 0 0
2238 1 30.772968905071973 11.060079822492204 6.621831388111767 0 0 0
102 1 -5.859539979415258 14.402461350751398 6.6220681917671165 0 0 0
342 1 -2.00340020772643 14.403782809465476 6.618947457404779 0 0 0
582 1 1.853285685650964 14.403850700840305 6.618766834832659 0 0 0
796 1 5.708268233570697 12.178099144119193 5.837867329126296 0 0 0
822 1 5.703991203833434 14.401802040102067 6.6239662033104 0 0 0
1036 1 9.562182468825979 12.174490390948542 5.840467835826784 0 0 0
1062 1 9.565880256184803 14.407244401715259 6.624692441254982 0 0 0
1302 1 13.418071761406425 14.405337767850536 6.620569606110419 0 0 0
1516 1 17.2735981019318 12.179755354857306 5.8334628184292106 0 0 0
1542 1 17.273396323013092 14.403748233471115 6.6219313363430885 0 0 0
1782 1 21.129588046070275 14.405392137480318 6.620288472533064 0 0 0
1756 1 21.131512846713377 12.174560033777462 5.835404071298365 0 0 0
1996 1 24.98322395106909 12.174172602088802 5.838517790294213 0 0 0
2022 1 24.982274560287628 14.403858713902768 6.624803463682031 0 0 0
2236 1 28.844490538122603 12.176046475040271 5.839708905666498 0 0 0
2262 1 28.842285193166965 14.404139762213168 6.626360727546795 0 0 0
126 1 -7.78764420845853 17.739828692340566 6.622602803791629 0 0 0
340 1 -3.9332754048703387 15.512945536875925 5.837824308813355 0 0 0
366 1 -3.932824981687056 17.738260089541644 6.620190281407384 0 0 0
580 1 -0.07556159140761894 15.514855784157497 5.839846500756302 0 0 0
606 1 -0.0739721723358204 17.74069168714128 6.619521768964867 0 0 0
846 1 3.780461503814707 17.742870892857756 6.615640179027154 0 0 0
820 1 3.781241857137972 15.516799946507616 5.838832324604255 0 0 0
1060 1 7.6322568653308736 15.515375758644563 5.8398667697721525 0 0 0
1086 1 7.633087031789003 17.74303852723289 6.619709110135473 0 0 0
1300 1 11.496512353671928 15.516973649326566 5.837014527197952 0 0 0
1326 1 11.491270792947274 17.738646550189806 6.623914421414168 0 0 0
1540 1 15.342994880647773 15.510764196795265 5.840143533877426 0 0 0
1566 1 15.345075602140417 17.738676671867733 6.622263002379267 0 0 0
1780 1 19.198675589926417 15.515694619244886 5.83419120052025 0 0 0
1806 1 19.20278383871621 17.740708098997153 6.625336872850151 0 0 0
2020 1 23.058286063145374 15.518417828946685 5.833699157397905 0 0 0
2046 1 23.056834858658647 17.741302806083116 6.622126215646702 0 0 0
2260 1 26.912115314555123 15.514903878961295 5.834007559189401 0 0 0
2286 1 26.912770917387427 17.743469364059866 6.623880664602963 0 0 0
124 1 -9.711955148195363 18.85398617749577 5.836901713949099 0 0 0
630 1 -2.0029499141923894 21.081385315233334 6.621220586366314 0 0 0
604 1 -2.0039176244629746 18.853062081624056 5.838454363039963 0 0 0
844 1 1.8538954163940187 18.855037517778108 5.839514724244152 0 0 0
1084 1 5.706301925458752 18.856248385183434 5.834957128485504 0 0 0
1110 1 5.706549752020576 21.078213672131607 6.623002014092916 0 0 0
1350 1 9.562210307717494 21.081433051214923 6.623648860102301 0 0 0
1324 1 9.565558815535763 18.852219264854714 5.832795204009745 0 0 0
1564 1 13.416562285670677 18.855874817836884 5.840121070037474 0 0 0
1590 1 13.422614030553419 21.083172974093024 6.621683358136221 0 0 0
1804 1 17.274079134771718 18.855384602061292 5.835520768019492 0 0 0