LAMMPS data file via write_data, version 2 Aug 2023, timestep = 60000, units = metal

2400 atoms
1 atom types

0 38.64489210646077 xlo xhi
0 33.46280032141931 ylo yhi
0 37.726280205125455 zlo zhi
-19.31718103470288 -0.0014998765871342156 -0.0007435113566166946 xy xz yz

Masses

1 28.08499999277529

Atoms # atomic

2 1 1.9321694046940727 1.1085766532769554 0.3893874298669002 0 0 0
3 1 1.9346076534271062 1.106593529675001 2.747824865345176 0 0 0
242 1 5.794905117142364 1.1175105010118993 0.38293544541144325 0 0 0
243 1 5.796245061584098 1.1127852597794377 2.750662302517556 0 0 0
482 1 9.657721592074699 1.109630488869782 0.3862886638022105 0 0 0
483 1 9.658973753613383 1.1158011184052727 2.7454658399844667 0 0 0
722 1 13.52199409769228 1.1195431920695904 0.37731117115052265 0 0 0
723 1 13.530842551772603 1.1126205947041168 2.746837494876298 0 0 0
962 1 17.388109849047353 1.121843146458383 0.38725563710008487 0 0 0
963 1 17.38356016166616 1.1214589722261192 2.746311105559665 0 0 0
1202 1 21.259487230736934 1.1143940755188146 0.3795032936143235 0 0 0
1203 1 21.249815530221262 1.1206667709477698 2.750698121708328 0 0 0
1442 1 25.116422129062265 1.1138380470102802 0.3868894506189521 0 0 0
1443 1 25.119277594810434 1.120388623976656 2.745989386979405 0 0 0
1682 1 28.974084477941616 1.117902499286063 0.3876934068051012 0 0 0
1683 1 28.985697010830897 1.114595971194277 2.7456123957057224 0 0 0
1922 1 32.8389131994964 1.1150408256824278 0.3939541415733952 0 0 0
1923 1 32.85084367363281 1.1172389180472397 2.7465483150148904 0 0 0
2162 1 36.70282014632073 1.1198388825870471 0.38219336880249644 0 0 0
2163 1 36.71476189551586 1.1215740345857808 2.744217120710861 0 0 0
26 1 0.003091568193277976 4.46046268776585 0.3922659191574933 0 0 0
27 1 0.004271592156626419 4.457845979600316 2.742639001924393 0 0 0
266 1 3.868275953783719 4.4534346133409155 0.39068927602430725 0 0 0
506 1 7.731735904556804 4.462558023741578 0.39229814508300703 0 0 0
507 1 7.7261753132132505 4.461805695777465 2.748633369544133 0 0 0
746 1 11.592528550328632 4.463674363094548 0.387357772842667 0 0 0
747 1 11.598643612011582 4.46907695537685 2.7527810994979562 0 0 0
986 1 15.450843948107073 4.464301533679344 0.37964271394260835 0 0 0
1226 1 19.32663125418467 4.461877431772963 0.3872653184186968 0 0 0
1466 1 23.192908796904387 4.469689814013294 0.39756002465246315 0 0 0
1706 1 27.05507233599769 4.451734547885727 0.39829420504988805 0 0 0
1707 1 27.05272079395792 4.463358438864369 2.7542499362632364 0 0 0
1946 1 30.913109455562562 4.462281166659873 0.3886669759639681 0 0 0
1947 1 30.917460405864627 4.458672442639513 2.75058919069577 0 0 0
2186 1 34.78181833843731 4.460781895165967 0.39852472817277645 0 0 0
2187 1 34.78657370707449 4.461345858356857 2.7529879959044723 0 0 0
50 1 -1.9224226093149572 7.8022897833972324 0.3985487894420299 0 0 0
51 1 -1.9272556635600842 7.794158188530735 2.75149627994513 0 0 0
290 1 1.9326510140387136 7.8065872807442185 0.39380519273655146 0 0 0
291 1 1.9219631787645253 7.803509074667816 2.7555261524894354 0 0 0
530 1 5.795627193222089 7.801303444550718 0.39566634348091756 0 0 0
531 1 5.796049170874232 7.797682898352091 2.7499446603946964 0 0 0
771 1 9.653062308545014 7.812017393165627 2.752482697016531 0 0 0
770 1 9.65872931773305 7.807620743215825 0.3938439408673675 0 0 0
1010 1 13.52565544849464 7.805260593645016 0.3905974442338497 0 0 0
1011 1 13.524224646550241 7.803257538128193 2.7494865501586294 0 0 0
1251 1 17.39740331637397 7.805950320553468 2.752133588854919 0 0 0
1250 1 17.39405182057047 7.8088470715166345 0.3807130903747875 0 0 0
1490 1 21.258970071571536 7.816435898278584 0.39149615789564324 0 0 0
1491 1 21.254775536917194 7.8027565818118125 2.758245197501146 0 0 0
1730 1 25.111810532617028 7.803152112636406 0.39179532159018104 0 0 0
1731 1 25.124296912812607 7.806423149835302 2.752447981487748 0 0 0
1970 1 28.982537459295315 7.806138939455688 0.39564226532772245 0 0 0
1971 1 28.988803317727932 7.804165505343913 2.7646660257042726 0 0 0
2210 1 32.8417820568964 7.810659739478505 0.39942319841429824 0 0 0
2211 1 32.847068877366155 7.805520199325409 2.7559402848042276 0 0 0
74 1 -3.864726661578951 11.152167560929035 0.395230589453411 0 0 0
75 1 -3.8634074153455638 11.144935079997175 2.7665205973635074 0 0 0
314 1 0.0008689759231415002 11.142414501681401 0.39392209894575086 0 0 0
315 1 0.013103314354595854 11.14918933306487 2.752315572632036 0 0 0
555 1 3.860277565089605 11.149635120879193 2.7560216545453837 0 0 0
554 1 3.8582830791695026 11.153839148090187 0.38892221429838647 0 0 0
794 1 7.732263600601084 11.154775665983653 0.3936928823393511 0 0 0
795 1 7.737490544570619 11.145350602350169 2.7423526464345613 0 0 0
1034 1 11.591228727106307 11.15839769481451 0.3878013630133489 0 0 0
1035 1 11.59162884588805 11.155393714745697 2.7526662956189134 0 0 0
1275 1 15.464361739218985 11.14810511320584 2.7521455410689066 0 0 0
1274 1 15.462509801205684 11.154648698496144 0.38988065155246304 0 0 0
1514 1 19.326790865628848 11.152261711102792 0.3956045188739511 0 0 0
1515 1 19.328605413915 11.151653958206202 2.7520600999756573 0 0 0
1754 1 23.195962660145298 11.15873204543457 0.3901046326364575 0 0 0
1755 1 23.193249633517897 11.150066004656749 2.748353278089125 0 0 0
1994 1 27.061135769830575 11.158245935430346 0.3903558159283533 0 0 0
1995 1 27.05073283292919 11.150779089632149 2.7480439863076596 0 0 0
2234 1 30.922576250638723 11.152115932931645 0.39918230422018575 0 0 0
2235 1 30.921702021913553 11.154254456875243 2.752679973442644 0 0 0
98 1 -5.791732178393374 14.500181525549257 0.4038966590974874 0 0 0
99 1 -5.78443874737732 14.500271235092466 2.769995709489601 0 0 0
338 1 -1.9409091812809294 14.503453780968227 0.40138218595395014 0 0 0
578 1 1.9401197453711685 14.501430838154677 0.3845244830610461 0 0 0
579 1 1.9411819241938015 14.490660264780162 2.754345583721432 0 0 0
818 1 5.806170087151215 14.489781047703088 0.4079722080430458 0 0 0
1059 1 9.65887991534247 14.502690524975606 2.7634780929240716 0 0 0
1058 1 9.662390058359323 14.495241770211694 0.3957150760872857 0 0 0
1298 1 13.528168598151218 14.496529317831504 0.398744025772304 0 0 0
1538 1 17.40138171901412 14.498701696165059 0.3901459644040063 0 0 0
1539 1 17.396849638953476 14.502363513835938 2.752760105955859 0 0 0
1778 1 21.26283247548113 14.502621472027746 0.3835297932664809 0 0 0
1779 1 21.268328221543058 14.50140468480309 2.758299069630347 0 0 0
2018 1 25.138672601332818 14.505951622966215 0.3883602135602517 0 0 0
2019 1 25.13245091488442 14.501010469220454 2.7567227234673894 0 0 0
2258 1 28.99254528845796 14.50295228006688 0.4015262011319935 0 0 0
2259 1 28.982608091995257 14.506098575991196 2.751981329744766 0 0 0
122 1 -7.722835267709778 17.851357425001734 0.4128865573076436 0 0 0
123 1 -7.733312064121169 17.850749776734745 2.766989743653137 0 0 0
362 1 -3.8574577920406337 17.85752384417165 0.39515159299650776 0 0 0
363 1 -3.860393208609792 17.846403494635258 2.7516885953577046 0 0 0
602 1 0.0003470069621912303 17.844970104636413 0.3871538503491741 0 0 0
842 1 3.864551080009139 17.83826177390288 0.3924350405474718 0 0 0
843 1 3.87598932267062 17.840526939744432 2.7611175540926034 0 0 0
1082 1 7.7339725060549895 17.85058781244869 0.391316995089518 0 0 0
1322 1 11.602327243395608 17.848774155288535 0.39656059302832547 0 0 0
1562 1 15.455671110097603 17.83946223327081 0.38966254291313895 0 0 0
1563 1 15.463840086580666 17.844865831653312 2.7568277620238373 0 0 0
1802 1 19.340501045484118 17.845723520035435 0.39274618791010035 0 0 0
1803 1 19.333499401164932 17.854064048878378 2.759725885197451 0 0 0
2042 1 23.197740570547023 17.852124494202968 0.39981522678963854 0 0 0
2043 1 23.178617253120123 17.850490447589532 2.7491834930997 0 0 0
2282 1 27.058744331158458 17.84367122758627 0.40220518365047275 0 0 0
2283 1 27.054844616889767 17.83522224562588 2.758400669892741 0 0 0
146 1 -9.650880283296445 21.199254682325453 0.39973611596460246 0 0 0
147 1 -9.658478727877593 21.198382675879557 2.759707215136405 0 0 0
387 1 -5.791715107770139 21.196622639821634 2.7514945138156106 0 0 0
866 1 1.9361453516126483 21.19219148073281 0.3821669624628613 0 0 0
867 1 1.932485398615957 21.200593503174996 2.7503889027431905 0 0 0
1106 1 5.793808744416824 21.186716338636803 0.39540215794718025 0 0 0
1347 1 9.6716841794992 21.2029713842257 2.7595808459747784 0 0 0
1344 1 9.657019337585583 18.957594143030885 37.32904007402201 0 0 1
2067 1 21.256573021658074 21.195934764537483 2.7636529838152084 0 0 0
2306 1 25.120862142150695 21.19901274231491 0.3906116207333426 0 0 0
2307 1 25.11795121361791 21.19928102911869 2.7587930100885063 0 0 0
170 1 -11.590403379557637 24.539200843465377 0.3800573407435827 0 0 0
171 1 -11.589162586426756 24.544004140572923 2.7461808064143223 0 0 0
386 1 -5.798280087697699 21.204067535130925 0.3947861793379076 0 0 0
411 1 -7.726248895520899 24.544612700718684 2.741174745459924 0 0 0
626 1 -1.933453737913831 21.186391340686857 0.3903226559725744 0 0 0
1346 1 9.669106693528475 21.204216631979268 0.389745024560281 0 0 0
1586 1 13.534033769504001 21.184570671003012 0.3944604685422251 0 0 0
1587 1 13.530625570688859 21.191995693218338 2.7520819630993327 0 0 0
1826 1 17.39737716587564 21.199566477881277 0.3976517574167795 0 0 0
2066 1 21.247698444985694 21.195319313766856 0.4048158505723681 0 0 0
410 1 -7.722544068829507 24.53954166104949 0.3799094022794832 0 0 0
651 1 -3.857156202907346 24.53270127554437 2.7370692289847804 0 0 0
650 1 -3.851302672186676 24.536779586820135 0.38682059807659774 0 0 0
890 1 0.003273016311996249 24.545045480852572 0.39256272015020266 0 0 0
891 1 0.009747797252573185 24.549958159858814 2.754076534053955 0 0 0
1131 1 3.8773179236627437 24.5443729967799 2.7526920180803702 0 0 0
1130 1 3.871824578203157 24.53938612220049 0.3889410788357196 0 0 0
1371 1 7.731337603834079 24.537090883468267 2.7471158440864 0 0 0
1370 1 7.73010317693547 24.54148524127498 0.38931939571568014 0 0 0
1610 1 11.60927380283556 24.53587648543514 0.39042054067372933 0 0 0
1611 1 11.594755769545866 24.54135097540071 2.750032141173939 0 0 0
1850 1 15.465279682077776 24.53693034189258 0.39159001371011226 0 0 0
2090 1 19.322762912981492 24.53763466609088 0.4051186070904463 0 0 0
2330 1 23.192178335290194 24.536728112930707 0.39479005215626034 0 0 0
195 1 -13.521689014941359 27.883287185462898 2.751377828717727 0 0 0
194 1 -13.515849042120317 27.883195160376538 0.38991965999439426 0 0 0
434 1 -9.654761959400291 27.891101114224707 0.3912468564027506 0 0 0
674 1 -5.788883315658189 27.885510865922075 0.37948312439121734 0 0 0
675 1 -5.793659780390486 27.88706053654107 2.747995016840253 0 0 0
915 1 -1.930044170335227 27.882997228140802 2.7562657603909684 0 0 0
914 1 -1.9167107732979471 27.883432216988552 0.3879296899066203 0 0 0
1154 1 1.9333296880594297 27.88335063326702 0.3827925874635729 0 0 0
1155 1 1.9293246768719161 27.88341002314644 2.754158865970263 0 0 0
1395 1 5.796916646957406 27.88581454812791 2.7472424358222844 0 0 0
1394 1 5.799854690650563 27.887383623545507 0.3876679547366762 0 0 0
1634 1 9.662631452279669 27.880679122961418 0.386326067123244 0 0 0
1874 1 13.522849258720198 27.892124296952723 0.39182864322187283 0 0 0
1875 1 13.528135958331724 27.879763088110156 2.749794022607654 0 0 0
2114 1 17.388813062311492 27.897864389504086 0.39037951250150177 0 0 0
2115 1 17.394454442150526 27.886868833969352 2.7486338913825556 0 0 0
2354 1 21.259313762868047 27.891832697492518 0.3931900776804115 0 0 0
2355 1 21.25267924579509 27.88676229913333 2.7494418963554974 0 0 0
218 1 -15.446077793330417 31.22675020067367 0.3884869012885922 0 0 0
219 1 -15.459659320888878 31.2334951243986 2.7464890766653833 0 0 0
458 1 -11.587355757124051 31.227687384245638 0.38016326013190244 0 0 0
459 1 -11.602668718868648 31.22806553201339 2.747046771188711 0 0 0
699 1 -7.7273598008239714 31.228741567991026 2.746711611735915 0 0 0
698 1 -7.7236945231375165 31.235417496078867 0.3828882885116344 0 0 0
938 1 -3.86415643301132 31.233716164984834 0.37097863449841906 0 0 0
939 1 -3.86440627443858 31.23816238319417 2.7427617649582743 0 0 0
1178 1 0.0013673842321264287 31.229903587995388 0.382243298652805 0 0 0
1179 1 0.008758555146486869 31.242041446892003 2.737137322626534 0 0 0
1419 1 3.871910657039734 31.23425496650272 2.7413494476276945 0 0 0
1418 1 3.87239830441756 31.231066705079815 0.37690344823926075 0 0 0
1658 1 7.730022378076024 31.230083966292952 0.3787980981800385 0 0 0
1659 1 7.740250298025062 31.22761253049081 2.743660586065309 0 0 0
1898 1 11.597354003698976 31.229484573674842 0.4022401364605158 0 0 0
1899 1 11.59675546581821 31.2244412702874 2.7534342713786697 0 0 0
2138 1 15.451326964237365 31.233874152109273 0.38230996911020354 0 0 0
2139 1 15.469771331816743 31.22485290178939 2.747955357579049 0 0 0
2378 1 19.32166042675463 31.2348681456177 0.3937347083833056 0 0 0
2379 1 19.328630980349374 31.236089242219048 2.7548272327787524 0 0 0
1 1 -0.002287900342022714 2.235562001750892 3.519876564781861 0 0 0
4 1 0.0014429371170268063 2.226783329248743 5.8941811184201 0 0 0
241 1 3.868846152778933 2.224338520459065 3.528919079291144 0 0 0
481 1 7.724745067119468 2.225125266619404 3.5271702834892307 0 0 0
484 1 7.72762688289054 2.230203755437002 5.896989026214217 0 0 0
721 1 11.595012565666055 2.2280965070797563 3.536770973124296 0 0 0
961 1 15.4576182045994 2.217845468459838 3.5194903912454407 0 0 0
1201 1 19.32535458489824 2.2299985646847005 3.533387545403625 0 0 0
1441 1 23.17058506113106 2.229241473239267 3.522905637902508 0 0 0
1444 1 23.182217262345674 2.2244870939475776 5.892173806378323 0 0 0
1681 1 27.051665652575807 2.2329961336948885 3.531346163965627 0 0 0
1921 1 30.91567229923982 2.230656611901379 3.5362868189393364 0 0 0
2161 1 34.78706332187275 2.2271157804012653 3.5261651362768185 0 0 0
2164 1 34.79059270253314 2.230418597087241 5.891841280541737 0 0 0
25 1 -1.937822921347986 5.571964689921964 3.5374966088270123 0 0 0
267 1 3.8664275754620494 4.461102138594831 2.750430622386946 0 0 0
265 1 1.9284603083794003 5.570967188198971 3.5400083563537685 0 0 0
505 1 5.7856314334069 5.580066019493203 3.542411178494589 0 0 0
508 1 5.784192631069745 5.574381214809623 5.893588424036427 0 0 0
745 1 9.664116140940308 5.5816594401326745 3.5375285532164775 0 0 0
748 1 9.662557276114486 5.5719713395007044 5.905498368803522 0 0 0
987 1 15.457631928694452 4.464131124065161 2.7587517244374586 0 0 0
985 1 13.522907460839246 5.575076029672748 3.534408334631496 0 0 0
1225 1 17.400803094032753 5.578293902591557 3.528227486110436 0 0 0
1227 1 19.32391512682149 4.46058079978779 2.750363343073721 0 0 0
1465 1 21.254872702661643 5.574894034398965 3.5305800299311834 0 0 0
1467 1 23.173684105697873 4.454154243515172 2.7459006796232064 0 0 0
1705 1 25.111165287573876 5.57873560316276 3.5392832867998596 0 0 0
1945 1 28.98031405768324 5.568411107515755 3.5385343034830785 0 0 0
2185 1 32.85098409982988 5.560880524733934 3.535983950781656 0 0 0
49 1 -3.8588067398603423 8.916628388883794 3.5354554744346527 0 0 0
289 1 0.00526544060768211 8.922004278259427 3.5366295401936587 0 0 0
529 1 3.8722088745098255 8.91707599757446 3.5276698721996933 0 0 0
769 1 7.726494167902687 8.920838167672276 3.5285739996685956 0 0 0
1009 1 11.58950654419135 8.922844388802867 3.528523068838714 0 0 0
1249 1 15.469086648039719 8.914371859636942 3.5350258618326396 0 0 0
1489 1 19.32802615386997 8.927926436714953 3.5399984968783578 0 0 0
1969 1 27.05740630875975 8.922904890399826 3.543354313048771 0 0 0
2209 1 30.920534573808208 8.916932479164357 3.535005482187462 0 0 0
73 1 -5.786454346848433 12.2657656516308 3.5425096192481695 0 0 0
796 1 5.804050804165695 12.269474153313174 5.887855168850408 0 0 0
1033 1 9.654501442806833 12.276938577121568 3.5375359193083793 0 0 0
1036 1 9.660934349099445 12.272347189749807 5.8995810149968895 0 0 0
1276 1 13.539749855100052 12.264585287592954 5.8931676599223515 0 0 0
1753 1 21.26419962748588 12.269141068036445 3.5411540982007406 0 0 0
1729 1 23.187336802657857 8.920658296146385 3.539501974948827 0 0 0
2233 1 28.986386528997503 12.2673935840114 3.5331873256284716 0 0 0
339 1 -1.924789847133752 14.497036479911612 2.7619029981378076 0 0 0
313 1 -1.9274042726391616 12.259591374210094 3.534940408666045 0 0 0
553 1 1.9359340989934017 12.273168885538189 3.538859300201909 0 0 0
556 1 1.9361484923935368 12.263989483333004 5.900066734685255 0 0 0
819 1 5.796952004708511 14.501111200460302 2.7530086051126412 0 0 0
793 1 5.797897426577201 12.258066131692344 3.5231983968486986 0 0 0
1299 1 13.528572158560133 14.498371017593987 2.74815465620774 0 0 0
1273 1 13.526550446936081 12.273629237084167 3.533024189759399 0 0 0
1513 1 17.384705138452148 12.272233839881164 3.5431038682340383 0 0 0
1993 1 25.11717648334908 12.266513530906478 3.5419362704047597 0 0 0
2236 1 28.993362111794205 12.269160945865787 5.89647830694033 0 0 0
97 1 -7.723410351906881 15.614256724800553 3.5398948404944 0 0 0
100 1 -7.719463339693778 15.614973009917662 5.896286042358531 0 0 0
337 1 -3.8601735255567964 15.610568037873653 3.5498917557488903 0 0 0
603 1 0.003795426881935871 17.84604074588098 2.7470476534956645 0 0 0
577 1 0.008754155573468482 15.612924599574193 3.5300142851404432 0 0 0
580 1 0.01447303506859268 15.612975837142983 5.889355554821198 0 0 0
817 1 3.8682465726783373 15.608650449501752 3.545674724131874 0 0 0
1083 1 7.730878596914123 17.855435459656988 2.7473888280107293 0 0 0
1057 1 7.726597623512185 15.615951979850808 3.5417017778865305 0 0 0
1323 1 11.599454448971896 17.85429761299613 2.751309669750333 0 0 0
1297 1 11.60161488009263 15.614076092207162 3.5339369509186285 0 0 0
1537 1 15.460790994047006 15.616737430440944 3.535911892046816 0 0 0
1540 1 15.473866130681666 15.614637338819437 5.901781502088155 0 0 0
1777 1 19.33064022429851 15.613036861122925 3.54489729790647 0 0 0
2017 1 23.192823403397863 15.610081625195814 3.5472864785179032 0 0 0
2257 1 27.072538791329126 15.617211089494312 3.539501923852073 0 0 0
121 1 -9.657546539550045 18.964875014698695 3.5392003685982742 0 0 0
124 1 -9.650064591497387 18.96311072342015 5.897484809776084 0 0 0
361 1 -5.787993342985126 18.957077463915702 3.5353711969550297 0 0 0
601 1 -1.9291593548363952 18.960653935888555 3.534427566117343 0 0 0
841 1 1.935424416240163 18.971101361942477 3.5326047010110444 0 0 0
844 1 1.9370547024659026 18.95416799421819 5.889915615806094 0 0 0
1107 1 5.8037843253317005 21.183589535229164 2.7572169911963322 0 0 0
1081 1 5.7962964814936 18.956851937871473 3.5388764676482913 0 0 0
1321 1 9.671230940255397 18.966548423659162 3.5439430383260726 0 0 0
1561 1 13.532659007577058 18.963889575705966 3.541779246658249 0 0 0
1801 1 17.385848466772867 18.953846684887605 3.5467475797596317 0 0 0
1804 1 17.398281327475825 18.960630326537633 5.909280818695399 0 0 0
2041 1 21.26290784363933 18.960127967720183 3.5459622108830353 0 0 0
2281 1 25.124921761934907 18.952283841173234 3.5400470985048926 0 0 0
2284 1 25.12438543330205 18.962256443880438 5.899859613991944 0 0 0
145 1 -11.58725926661181 22.325977456973934 3.53143296544127 0 0 0
385 1 -7.727362719442952 22.30639845965995 3.532709766388745 0 0 0
625 1 -3.852621240747176 22.316863866249136 3.532457544658994 0 0 0
627 1 -1.9312763146680225 21.198666516413798 2.7556369591844603 0 0 0
865 1 -0.002525253158915544 22.313579273209815 3.5385572894473043 0 0 0
1105 1 3.8648802644211857 22.316950516030563 3.527181356720649 0 0 0
1345 1 7.726645851035186 22.30372961196318 3.5298712224521744 0 0 0
1585 1 11.598397751021562 22.31445991698509 3.541830589599536 0 0 0
1825 1 15.463404446395584 22.307893867888588 3.5558621247787485 0 0 0
1827 1 17.400271168565858 21.190903208913273 2.761344482021819 0 0 0
2065 1 19.325851338917946 22.306965983930226 3.5379966241509377 0 0 0
2331 1 23.189598396103122 24.540116519700476 2.751758131045618 0 0 0
2305 1 23.18146486879904 22.306333898070807 3.539995147221272 0 0 0
172 1 -13.507213291928371 25.65953761865041 5.90069936751797 0 0 0
169 1 -13.510466302101996 25.655497877387454 3.5334889912901466 0 0 0
409 1 -9.65885543892971 25.65556873723553 3.5331080003783217 0 0 0
412 1 -9.652116975217348 25.65483040881589 5.884544617039099 0 0 0
649 1 -5.788738983557796 25.658563662297844 3.5328118223636626 0 0 0
889 1 -1.9293185078707167 25.656943899048226 3.5182146364698763 0 0 0
1129 1 1.9483078284038384 25.651321355976375 3.538604521678688 0 0 0
1132 1 1.9388907055755922 25.65009359766641 5.8888386650916145 0 0 0
1369 1 5.799917851026333 25.65847414620095 3.5363920774335895 0 0 0
1609 1 9.6788005532211 25.65389432301166 3.5295351062788862 0 0 0
1849 1 13.524090906823423 25.654912841355607 3.535069285001194 0 0 0
1852 1 13.542609280408177 25.664174781220805 5.893599937619216 0 0 0
1851 1 15.463199048094738 24.52704355885649 2.7510548249804585 0 0 0
2089 1 17.391309456410653 25.6486924082703 3.5349221161990863 0 0 0
2091 1 19.334916328441444 24.539522873811446 2.761563991497044 0 0 0
2329 1 21.267299889777718 25.6627903599718 3.5392460435367084 0 0 0
193 1 -15.45777061262146 29.00186207048549 3.53157340841403 0 0 0
433 1 -11.59138768697735 29.003020165831447 3.5402222711839832 0 0 0
435 1 -9.661248901683955 27.889558946755976 2.743193543939903 0 0 0
673 1 -7.722242151934072 29.0008315458082 3.525254154605071 0 0 0
913 1 -3.8609434033499537 29.005005357343123 3.5242836491009037 0 0 0
916 1 -3.859117316710457 29.0000355388973 5.882801163557587 0 0 0
1153 1 0.004309928307165427 29.01057001002457 3.5226298449589746 0 0 0
1156 1 -0.00799164446757234 29.000926804142228 5.886790852752918 0 0 0
1393 1 3.866840237355505 28.994959918527123 3.5266874595682633 0 0 0
1633 1 7.726004041990612 29.00439431426875 3.5403356469915113 0 0 0
1636 1 7.733826723285777 29.003180057673653 5.892813981629662 0 0 0
1635 1 9.66043338793359 27.877604715773103 2.7469097415660135 0 0 0
1873 1 11.592064985706518 28.998894081248114 3.5356450797481727 0 0 0
1876 1 11.603808267489494 29.00457884423496 5.886955675788726 0 0 0
2116 1 15.463297266757497 28.9999837033366 5.897983655013178 0 0 0
2113 1 15.456375487502086 29.00069431829908 3.5262392288726594 0 0 0
2353 1 19.338506791763084 28.99710169746492 3.525771884266184 0 0 0
2356 1 19.325404179949 29.00076855615893 5.8924974899052405 0 0 0
217 1 -17.380853082776685 32.336927509611314 3.532634757508276 0 0 0
457 1 -13.52409571591136 32.338417958607124 3.523657414966207 0 0 0
697 1 -9.660279147256027 32.33612422450949 3.524933215519931 0 0 0
700 1 -9.665465356739732 32.346272324694574 5.889475585970052 0 0 0
937 1 -5.7901074497489216 32.34725776584457 3.5308565975187096 0 0 0
1177 1 -1.9306673003388173 32.35510830158826 3.52507945127799 0 0 0
1180 1 -1.9242387062365538 32.350012797226285 5.884142288399225 0 0 0
1417 1 1.9315485291523629 32.35309939696619 3.5289453942510733 0 0 0
1657 1 5.807061494615103 32.35181053912803 3.531123173666351 0 0 0
1660 1 5.791229800834234 32.350307543670304 5.897645819328579 0 0 0
1897 1 9.664350295980924 32.3432624547334 3.545068768498363 0 0 0
1900 1 9.663184022188677 32.34412456918279 5.891840347143154 0 0 0
2137 1 13.535202767774239 32.349507456758374 3.5303899206925946 0 0 0
2377 1 17.399360979076693 32.34617614071164 3.5315762478333794 0 0 0
2380 1 17.393966628176123 32.344885989780906 5.899157477145741 0 0 0
244 1 3.8630425824184527 2.220945947015544 5.888190577097419 0 0 0
6 1 1.9300951972103964 1.1066044450883623 6.676709422575179 0 0 0
246 1 5.7984398025001225 1.10899761171832 6.678751627325712 0 0 0
486 1 9.663614493040564 1.1106699498355477 6.664289359108376 0 0 0
724 1 11.600835713853447 2.2258110579210495 5.8960822568056255 0 0 0
726 1 13.520331512741894 1.1162221121855602 6.674140534389969 0 0 0
964 1 15.456281136004556 2.221999062478146 5.8910470198022455 0 0 0
966 1 17.39129570241356 1.1131765793581596 6.679267443148508 0 0 0
1204 1 19.323862906733762 2.2276659435734674 5.890299335304865 0 0 0
1206 1 21.248240214382626 1.1126829694983909 6.666805969944736 0 0 0
1446 1 25.116371869684162 1.115176484850781 6.673714844446823 0 0 0
1684 1 27.045928348352458 2.219384274109789 5.890370905669047 0 0 0
1686 1 28.983699867606973 1.1164737118004733 6.669628082806575 0 0 0
1924 1 30.921286471539865 2.2273954450736304 5.889355758081833 0 0 0
1926 1 32.8469158404055 1.1181284813762769 6.681863594945725 0 0 0
2166 1 36.70507681117798 1.1135556702981262 6.6767722174368 0 0 0
28 1 -1.9324594182056234 5.574459375621469 5.908052286142721 0 0 0
30 1 0.009580291067073565 4.455831939464491 6.678095186313685 0 0 0
268 1 1.9283929779116078 5.578218891458469 5.8883280479587015 0 0 0
270 1 3.8651947850327133 4.452557133160796 6.684051970443129 0 0 0
510 1 7.726320594369303 4.454330873888345 6.680568670917144 0 0 0
750 1 11.5923801079172 4.451517555796357 6.667677463837127 0 0 0
988 1 13.522983596278467 5.580023831654344 5.898890034299405 0 0 0
1228 1 17.398732622859594 5.574840938686599 5.88244581680189 0 0 0
990 1 15.457600426347271 4.462549198504205 6.670083100094483 0 0 0
1230 1 19.314338940026186 4.460930930697049 6.672195039052129 0 0 0
1468 1 21.262824303914403 5.574730914538374 5.88928128112805 0 0 0
1470 1 23.180945563542895 4.457106326493244 6.675581536227674 0 0 0
1708 1 25.12101315668092 5.576196302465299 5.902628452447013 0 0 0
1710 1 27.056629522122762 4.447150755496353 6.678596194283657 0 0 0
1948 1 28.988708110551528 5.576000525259086 5.891637470307976 0 0 0
1950 1 30.921791107790987 4.460685783947417 6.673004321732474 0 0 0
2188 1 32.84756275419645 5.568081825128696 5.900768999279421 0 0 0
2190 1 34.78453542546129 4.457651745771137 6.683267573921506 0 0 0
54 1 -1.9254701074329117 7.80497378840708 6.678109974686581 0 0 0
292 1 0.0035164171132639394 8.921918042755483 5.9009590369964275 0 0 0
294 1 1.9312660701906645 7.804863785769276 6.683278444611347 0 0 0
532 1 3.868402352051789 8.92394442504129 5.899713847253709 0 0 0
534 1 5.7932432900942965 7.807763813814625 6.667446671181827 0 0 0
772 1 7.728952032184245 8.912995792798867 5.8980197338585345 0 0 0
774 1 9.66634517026806 7.805696630160089 6.681812943503936 0 0 0
1012 1 11.601772177259864 8.921966705887355 5.891177609435186 0 0 0
1014 1 13.527067536183981 7.811076366012805 6.680406753642856 0 0 0
1252 1 15.460208311456784 8.926879054244006 5.894459663674706 0 0 0
1254 1 17.38511217599428 7.811352403687583 6.683492754870684 0 0 0
1492 1 19.324778509792818 8.922150208360051 5.88377782801607 0 0 0
1494 1 21.257407772362914 7.808196172343832 6.671308664020683 0 0 0
1732 1 23.192077920979912 8.922120510134633 5.906425040564668 0 0 0
1972 1 27.05378907059662 8.92484833960891 5.884326383266066 0 0 0
1734 1 25.123179826199703 7.805193366054846 6.6772563966292084 0 0 0
1974 1 28.975374663323038 7.813322167209817 6.675600983574914 0 0 0
2212 1 30.923164456783184 8.91885530725925 5.898038220789759 0 0 0
2214 1 32.85196411663677 7.804597545694108 6.674586125479674 0 0 0
52 1 -3.8628684698572164 8.915046208424146 5.896783464638137 0 0 0
78 1 -3.8689763227016347 11.147960543368407 6.682954889920358 0 0 0
318 1 0.002536733202551608 11.147510793107925 6.691761120287005 0 0 0
558 1 3.8735217164026916 11.15728790693423 6.6850308342974545 0 0 0
798 1 7.736398815976864 11.15183812774739 6.675224565892806 0 0 0
1038 1 11.59316695604904 11.153901457178048 6.664005319758207 0 0 0
1278 1 15.454978332089308 11.153055599403515 6.683164859681987 0 0 0
1518 1 19.332749311146813 11.160143321704622 6.678976193512832 0 0 0
1758 1 23.188992050398998 11.148973536208388 6.681455435004884 0 0 0
1998 1 27.057534689805372 11.15189653781578 6.687722472590116 0 0 0
2238 1 30.91426727470017 11.148400026017017 6.676430643579839 0 0 0
76 1 -5.800482806508298 12.263885795455668 5.891688966347222 0 0 0
102 1 -5.789631738445307 14.491334145767329 6.681257951233068 0 0 0
316 1 -1.922925511991903 12.272022253280864 5.898920745298304 0 0 0
342 1 -1.9185213560620968 14.49524108276423 6.677375261377234 0 0 0
582 1 1.9336948041104183 14.4910920387564 6.679559336509684 0 0 0
822 1 5.797192639623321 14.507120081273657 6.678090370228393 0 0 0
1062 1 9.662089861988408 14.505834740216706 6.687461229097838 0 0 0
1302 1 13.534610125950797 14.499505929146302 6.670454952173434 0 0 0
1516 1 17.387784259202927 12.267361221062085 5.900343940795897 0 0 0
1542 1 17.402713907353384 14.502210739152325 6.6808103472927725 0 0 0
1756 1 21.26375495204906 12.269427032950166 5.895721585527582 0 0 0
1782 1 21.25725244881428 14.497662161349005 6.687770292997329 0 0 0
1996 1 25.12084300961244 12.254905557503239 5.901090988112201 0 0 0
2022 1 25.129241668068087 14.496518414252073 6.677308758663251 0 0 0
2262 1 28.98746194594275 14.505496063072238 6.68552727340182 0 0 0
126 1 -7.723588714431386 17.845159255639388 6.672524422204533 0 0 0
340 1 -3.8584302235083903 15.61511742509907 5.900204582626887 0 0 0
366 1 -3.8536432196662402 17.842321453940603 6.6815168382999595 0 0 0
606 1 0.004668773852498878 17.83820840701152 6.6783386119183366 0 0 0
820 1 3.867791560142677 15.612255996146056 5.898505291689394 0 0 0
846 1 3.8669136107414137 17.844354971919184 6.6827947212516134 0 0 0
1060 1 7.732855303366448 15.621291435905881 5.893083716137419 0 0 0
1086 1 7.730873670041837 17.854945055214888 6.683440284967912 0 0 0
1300 1 11.59715479067157 15.615513148971905 5.893287464641833 0 0 0
1326 1 11.601543254849474 17.84589289868346 6.678108064110248 0 0 0
1566 1 15.45522112714377 17.850366742209342 6.6759486212945855 0 0 0
1780 1 19.331327582537337 15.615287918013564 5.8951836826102415 0 0 0
1806 1 19.327594358266776 17.842001602809148 6.670414002324904 0 0 0
1807 1 19.321772981146363 17.845710022173655 9.037713205305646 0 0 0
2020 1 23.191216355723103 15.613363007220078 5.899751506119962 0 0 0
2046 1 23.190603911071385 17.84309438876626 6.680853322944524 0 0 0
2260 1 27.06659618727158 15.622933615237919 5.896968194247201 0 0 0
2286 1 27.05058223402532 17.845270738420943 6.678779878786362 0 0 0
364 1 -5.79405904947235 18.960354199481134 5.91132923859677 0 0 0
604 1 -1.9296337610030074 18.95416252121644 5.901165790844166 0 0 0
870 1 1.9302421295418484 21.1966427160271 6.680109122724829 0 0 0