(written by ASE)

4 atoms
1 atom types

0.0      3.8644892106460773  xlo xhi
0.0       3.346280032141931  ylo yhi
0.0       6.287713367520908  zlo zhi
    -1.9317181034702879 -0.00024997943118903592 -0.00012391855943611577  xy xz yz

Masses

     1      28.084999992775288 # Si

Atoms # atomic

     1   1    -0.12295190994610242      2.1287641881233181      3.4836651529055875
     2   1      1.8093167960722991        1.01334112363424     0.34054075740128065
     3   1      1.8093307503087885      1.0132844805818086      2.7043775514145305
     4   1    -0.12308987812693889      2.1286842585410066      5.8474836721251684
