(written by ASE)

4 atoms
1 atom types

0.0      3.8644892106460773  xlo xhi
0.0       3.346280032141931  ylo yhi
0.0      6.2877133675209089  zlo zhi
    -1.9317181034702879 -0.00024997943118903592 -0.00012391855943611577  xy xz yz

Masses

     1      28.084999992775288 # Si

Atoms # atomic

     1   1  6.2890051473171851e-05        2.23042101893388      3.5348851678611481
     2   1      1.9323799258710936       1.115455321418622     0.39115026756180366
     3   1      1.9324282595276396      1.1153343029794958      2.7525031168643972
     4   1  0.00017118003903424889      2.2311015838329298      5.8968881827545276
