(written by ASE)

2400 atoms
1 atom types

0.0      38.402999999999999  xlo xhi
0.0      33.257973581533797  ylo yhi
0.0      37.626600404519998  zlo zhi
    -19.201499999999996                       0                       0  xy xz yz

Masses

     1      28.084999992775295 # Si

Atoms # atomic

     1   1 -1.9428902930940239e-14      2.2171982387689306        3.52749378792375
     2   1      1.9201500000000193      1.1085991193844484        0.39194375421375
     3   1      1.9201500000000193      1.1085991193844484      2.7436062794962495
     4   1 -1.9428902930940239e-14      2.2171982387689306      5.8791563132062503
     5   1 -1.9428902930940239e-14      2.2171982387689306      9.7985938553437499
     6   1      1.9201500000000193      1.1085991193844484      6.6630438216337495
     7   1      1.9201500000000193      1.1085991193844484      9.0147063469162489
     8   1 -1.9428902930940239e-14      2.2171982387689306      12.150256380626249
     9   1 -1.9428902930940239e-14      2.2171982387689306      16.069693922763751
    10   1      1.9201500000000193      1.1085991193844484       12.93414388905375
    11   1      1.9201500000000193      1.1085991193844484       15.28580641433625
    12   1 -1.9428902930940239e-14      2.2171982387689306       18.42135644804625
    13   1 -1.9428902930940239e-14      2.2171982387689306      22.340793990183748
    14   1      1.9201500000000193      1.1085991193844484      19.205243956473748
    15   1      1.9201500000000193      1.1085991193844484      21.556906481756247
    16   1 -1.9428902930940239e-14      2.2171982387689306      24.692456515466247
    17   1 -1.9428902930940239e-14      2.2171982387689306      28.611894057603749
    18   1      1.9201500000000193      1.1085991193844484      25.476344023893748
    19   1      1.9201500000000193      1.1085991193844484      27.828006549176248
    20   1 -1.9428902930940239e-14      2.2171982387689306      30.963556582886248
    21   1 -1.9428902930940239e-14      2.2171982387689306       34.88299412502375
    22   1      1.9201500000000193      1.1085991193844484      31.747444091313749
    23   1      1.9201500000000193      1.1085991193844484      34.099106616596252
    24   1 -1.9428902930940239e-14      2.2171982387689306      37.234656650306249
    25   1     -1.9201500000000196       5.542995596922311        3.52749378792375
    26   1  1.9095836023552692e-14      4.4343964775378284        0.39194375421375
    27   1  1.9095836023552692e-14      4.4343964775378284      2.7436062794962495
    28   1     -1.9201500000000196       5.542995596922311      5.8791563132062503
    29   1     -1.9201500000000196       5.542995596922311      9.7985938553437499
    30   1  1.9095836023552692e-14      4.4343964775378284      6.6630438216337495
    31   1  1.9095836023552692e-14      4.4343964775378284      9.0147063469162489
    32   1     -1.9201500000000196       5.542995596922311      12.150256380626249
    33   1     -1.9201500000000196       5.542995596922311      16.069693922763751
    34   1  1.9095836023552692e-14      4.4343964775378284       12.93414388905375
    35   1  1.9095836023552692e-14      4.4343964775378284       15.28580641433625
    36   1     -1.9201500000000196       5.542995596922311       18.42135644804625
    37   1     -1.9201500000000196       5.542995596922311      22.340793990183748
    38   1  1.9095836023552692e-14      4.4343964775378284      19.205243956473748
    39   1  1.9095836023552692e-14      4.4343964775378284      21.556906481756247
    40   1     -1.9201500000000196       5.542995596922311      24.692456515466247
    41   1     -1.9201500000000196       5.542995596922311      28.611894057603749
    42   1  1.9095836023552692e-14      4.4343964775378284      25.476344023893748
    43   1  1.9095836023552692e-14      4.4343964775378284      27.828006549176248
    44   1     -1.9201500000000196       5.542995596922311      30.963556582886248
    45   1     -1.9201500000000196       5.542995596922311       34.88299412502375
    46   1  1.9095836023552692e-14      4.4343964775378284      31.747444091313749
    47   1  1.9095836023552692e-14      4.4343964775378284      34.099106616596252
    48   1     -1.9201500000000196       5.542995596922311      37.234656650306249
    49   1       -3.84030000000002      8.8687929550756905        3.52749378792375
    50   1     -1.9201499999999818      7.7601938356912097        0.39194375421375
    51   1     -1.9201499999999818      7.7601938356912097      2.7436062794962495
    52   1       -3.84030000000002      8.8687929550756905      5.8791563132062503
    53   1       -3.84030000000002      8.8687929550756905      9.7985938553437499
    54   1     -1.9201499999999818      7.7601938356912097      6.6630438216337495
    55   1     -1.9201499999999818      7.7601938356912097      9.0147063469162489
    56   1       -3.84030000000002      8.8687929550756905      12.150256380626249
    57   1       -3.84030000000002      8.8687929550756905      16.069693922763751
    58   1     -1.9201499999999818      7.7601938356912097       12.93414388905375
    59   1     -1.9201499999999818      7.7601938356912097       15.28580641433625
    60   1       -3.84030000000002      8.8687929550756905       18.42135644804625
    61   1       -3.84030000000002      8.8687929550756905      22.340793990183748
    62   1     -1.9201499999999818      7.7601938356912097      19.205243956473748
    63   1     -1.9201499999999818      7.7601938356912097      21.556906481756247
    64   1       -3.84030000000002      8.8687929550756905      24.692456515466247
    65   1       -3.84030000000002      8.8687929550756905      28.611894057603749
    66   1     -1.9201499999999818      7.7601938356912097      25.476344023893748
    67   1     -1.9201499999999818      7.7601938356912097      27.828006549176248
    68   1       -3.84030000000002      8.8687929550756905      30.963556582886248
    69   1       -3.84030000000002      8.8687929550756905       34.88299412502375
    70   1     -1.9201499999999818      7.7601938356912097      31.747444091313749
    71   1     -1.9201499999999818      7.7601938356912097      34.099106616596252
    72   1       -3.84030000000002      8.8687929550756905      37.234656650306249
    73   1     -5.7604500000000209      12.194590313229071        3.52749378792375
    74   1     -3.8402999999999814      11.085991193844588        0.39194375421375
    75   1     -3.8402999999999814      11.085991193844588      2.7436062794962495
    76   1     -5.7604500000000209      12.194590313229071      5.8791563132062503
    77   1     -5.7604500000000209      12.194590313229071      9.7985938553437499
    78   1     -3.8402999999999814      11.085991193844588      6.6630438216337495
    79   1     -3.8402999999999814      11.085991193844588      9.0147063469162489
    80   1     -5.7604500000000209      12.194590313229071      12.150256380626249
    81   1     -5.7604500000000209      12.194590313229071      16.069693922763751
    82   1     -3.8402999999999814      11.085991193844588       12.93414388905375
    83   1     -3.8402999999999814      11.085991193844588       15.28580641433625
    84   1     -5.7604500000000209      12.194590313229071       18.42135644804625
    85   1     -5.7604500000000209      12.194590313229071      22.340793990183748
    86   1     -3.8402999999999814      11.085991193844588      19.205243956473748
    87   1     -3.8402999999999814      11.085991193844588      21.556906481756247
    88   1     -5.7604500000000209      12.194590313229071      24.692456515466247
    89   1     -5.7604500000000209      12.194590313229071      28.611894057603749
    90   1     -3.8402999999999814      11.085991193844588      25.476344023893748
    91   1     -3.8402999999999814      11.085991193844588      27.828006549176248
    92   1     -5.7604500000000209      12.194590313229071      30.963556582886248
    93   1     -5.7604500000000209      12.194590313229071       34.88299412502375
    94   1     -3.8402999999999814      11.085991193844588      31.747444091313749
    95   1     -3.8402999999999814      11.085991193844588      34.099106616596252
    96   1     -5.7604500000000209      12.194590313229071      37.234656650306249
    97   1     -7.6806000000000223      15.520387671382451        3.52749378792375
    98   1     -5.7604499999999819      14.411788551997969        0.39194375421375
    99   1     -5.7604499999999819      14.411788551997969      2.7436062794962495
   100   1     -7.6806000000000223      15.520387671382451      5.8791563132062503
   101   1     -7.6806000000000223      15.520387671382451      9.7985938553437499
   102   1     -5.7604499999999819      14.411788551997969      6.6630438216337495
   103   1     -5.7604499999999819      14.411788551997969      9.0147063469162489
   104   1     -7.6806000000000223      15.520387671382451      12.150256380626249
   105   1     -7.6806000000000223      15.520387671382451      16.069693922763751
   106   1     -5.7604499999999819      14.411788551997969       12.93414388905375
   107   1     -5.7604499999999819      14.411788551997969       15.28580641433625
   108   1     -7.6806000000000223      15.520387671382451       18.42135644804625
   109   1     -7.6806000000000223      15.520387671382451      22.340793990183748
   110   1     -5.7604499999999819      14.411788551997969      19.205243956473748
   111   1     -5.7604499999999819      14.411788551997969      21.556906481756247
   112   1     -7.6806000000000223      15.520387671382451      24.692456515466247
   113   1     -7.6806000000000223      15.520387671382451      28.611894057603749
   114   1     -5.7604499999999819      14.411788551997969      25.476344023893748
   115   1     -5.7604499999999819      14.411788551997969      27.828006549176248
   116   1     -7.6806000000000223      15.520387671382451      30.963556582886248
   117   1     -7.6806000000000223      15.520387671382451       34.88299412502375
   118   1     -5.7604499999999819      14.411788551997969      31.747444091313749
   119   1     -5.7604499999999819      14.411788551997969      34.099106616596252
   120   1     -7.6806000000000223      15.520387671382451      37.234656650306249
   121   1     -9.6007500000000192      18.846185029535832        3.52749378792375
   122   1     -7.6805999999999814      17.737585910151346        0.39194375421375
   123   1     -7.6805999999999814      17.737585910151346      2.7436062794962495
   124   1     -9.6007500000000192      18.846185029535832      5.8791563132062503
   125   1     -9.6007500000000192      18.846185029535832      9.7985938553437499
   126   1     -7.6805999999999814      17.737585910151346      6.6630438216337495
   127   1     -7.6805999999999814      17.737585910151346      9.0147063469162489
   128   1     -9.6007500000000192      18.846185029535832      12.150256380626249
   129   1     -9.6007500000000192      18.846185029535832      16.069693922763751
   130   1     -7.6805999999999814      17.737585910151346       12.93414388905375
   131   1     -7.6805999999999814      17.737585910151346       15.28580641433625
   132   1     -9.6007500000000192      18.846185029535832       18.42135644804625
   133   1     -9.6007500000000192      18.846185029535832      22.340793990183748
   134   1     -7.6805999999999814      17.737585910151346      19.205243956473748
   135   1     -7.6805999999999814      17.737585910151346      21.556906481756247
   136   1     -9.6007500000000192      18.846185029535832      24.692456515466247
   137   1     -9.6007500000000192      18.846185029535832      28.611894057603749
   138   1     -7.6805999999999814      17.737585910151346      25.476344023893748
   139   1     -7.6805999999999814      17.737585910151346      27.828006549176248
   140   1     -9.6007500000000192      18.846185029535832      30.963556582886248
   141   1     -9.6007500000000192      18.846185029535832       34.88299412502375
   142   1     -7.6805999999999814      17.737585910151346      31.747444091313749
   143   1     -7.6805999999999814      17.737585910151346      34.099106616596252
   144   1     -9.6007500000000192      18.846185029535832      37.234656650306249
   145   1     -11.520900000000021      22.171982387689212        3.52749378792375
   146   1     -9.6007499999999819       21.06338326830473        0.39194375421375
   147   1     -9.6007499999999819       21.06338326830473      2.7436062794962495
   148   1     -11.520900000000021      22.171982387689212      5.8791563132062503
   149   1     -11.520900000000021      22.171982387689212      9.7985938553437499
   150   1     -9.6007499999999819       21.06338326830473      6.6630438216337495
   151   1     -9.6007499999999819       21.06338326830473      9.0147063469162489
   152   1     -11.520900000000021      22.171982387689212      12.150256380626249
   153   1     -11.520900000000021      22.171982387689212      16.069693922763751
   154   1     -9.6007499999999819       21.06338326830473       12.93414388905375
   155   1     -9.6007499999999819       21.06338326830473       15.28580641433625
   156   1     -11.520900000000021      22.171982387689212       18.42135644804625
   157   1     -11.520900000000021      22.171982387689212      22.340793990183748
   158   1     -9.6007499999999819       21.06338326830473      19.205243956473748
   159   1     -9.6007499999999819       21.06338326830473      21.556906481756247
   160   1     -11.520900000000021      22.171982387689212      24.692456515466247
   161   1     -11.520900000000021      22.171982387689212      28.611894057603749
   162   1     -9.6007499999999819       21.06338326830473      25.476344023893748
   163   1     -9.6007499999999819       21.06338326830473      27.828006549176248
   164   1     -11.520900000000021      22.171982387689212      30.963556582886248
   165   1     -11.520900000000021      22.171982387689212       34.88299412502375
   166   1     -9.6007499999999819       21.06338326830473      31.747444091313749
   167   1     -9.6007499999999819       21.06338326830473      34.099106616596252
   168   1     -11.520900000000021      22.171982387689212      37.234656650306249
   169   1     -13.441050000000024      25.497779745842593        3.52749378792375
   170   1     -11.520899999999981      24.389180626458106        0.39194375421375
   171   1     -11.520899999999981      24.389180626458106      2.7436062794962495
   172   1     -13.441050000000024      25.497779745842593      5.8791563132062503
   173   1     -13.441050000000024      25.497779745842593      9.7985938553437499
   174   1     -11.520899999999981      24.389180626458106      6.6630438216337495
   175   1     -11.520899999999981      24.389180626458106      9.0147063469162489
   176   1     -13.441050000000024      25.497779745842593      12.150256380626249
   177   1     -13.441050000000024      25.497779745842593      16.069693922763751
   178   1     -11.520899999999981      24.389180626458106       12.93414388905375
   179   1     -11.520899999999981      24.389180626458106       15.28580641433625
   180   1     -13.441050000000024      25.497779745842593       18.42135644804625
   181   1     -13.441050000000024      25.497779745842593      22.340793990183748
   182   1     -11.520899999999981      24.389180626458106      19.205243956473748
   183   1     -11.520899999999981      24.389180626458106      21.556906481756247
   184   1     -13.441050000000024      25.497779745842593      24.692456515466247
   185   1     -13.441050000000024      25.497779745842593      28.611894057603749
   186   1     -11.520899999999981      24.389180626458106      25.476344023893748
   187   1     -11.520899999999981      24.389180626458106      27.828006549176248
   188   1     -13.441050000000024      25.497779745842593      30.963556582886248
   189   1     -13.441050000000024      25.497779745842593       34.88299412502375
   190   1     -11.520899999999981      24.389180626458106      31.747444091313749
   191   1     -11.520899999999981      24.389180626458106      34.099106616596252
   192   1     -13.441050000000024      25.497779745842593      37.234656650306249
   193   1     -15.361200000000023      28.823577103995973        3.52749378792375
   194   1     -13.441049999999985       27.71497798461149        0.39194375421375
   195   1     -13.441049999999985       27.71497798461149      2.7436062794962495
   196   1     -15.361200000000023      28.823577103995973      5.8791563132062503
   197   1     -15.361200000000023      28.823577103995973      9.7985938553437499
   198   1     -13.441049999999985       27.71497798461149      6.6630438216337495
   199   1     -13.441049999999985       27.71497798461149      9.0147063469162489
   200   1     -15.361200000000023      28.823577103995973      12.150256380626249
   201   1     -15.361200000000023      28.823577103995973      16.069693922763751
   202   1     -13.441049999999985       27.71497798461149       12.93414388905375
   203   1     -13.441049999999985       27.71497798461149       15.28580641433625
   204   1     -15.361200000000023      28.823577103995973       18.42135644804625
   205   1     -15.361200000000023      28.823577103995973      22.340793990183748
   206   1     -13.441049999999985       27.71497798461149      19.205243956473748
   207   1     -13.441049999999985       27.71497798461149      21.556906481756247
   208   1     -15.361200000000023      28.823577103995973      24.692456515466247
   209   1     -15.361200000000023      28.823577103995973      28.611894057603749
   210   1     -13.441049999999985       27.71497798461149      25.476344023893748
   211   1     -13.441049999999985       27.71497798461149      27.828006549176248
   212   1     -15.361200000000023      28.823577103995973      30.963556582886248
   213   1     -15.361200000000023      28.823577103995973       34.88299412502375
   214   1     -13.441049999999985       27.71497798461149      31.747444091313749
   215   1     -13.441049999999985       27.71497798461149      34.099106616596252
   216   1     -15.361200000000023      28.823577103995973      37.234656650306249
   217   1     -17.281350000000025      32.149374462149353        3.52749378792375
   218   1     -15.361199999999984      31.040775342764871        0.39194375421375
   219   1     -15.361199999999984      31.040775342764871      2.7436062794962495
   220   1     -17.281350000000025      32.149374462149353      5.8791563132062503
   221   1     -17.281350000000025      32.149374462149353      9.7985938553437499
   222   1     -15.361199999999984      31.040775342764871      6.6630438216337495
   223   1     -15.361199999999984      31.040775342764871      9.0147063469162489
   224   1     -17.281350000000025      32.149374462149353      12.150256380626249
   225   1     -17.281350000000025      32.149374462149353      16.069693922763751
   226   1     -15.361199999999984      31.040775342764871       12.93414388905375
   227   1     -15.361199999999984      31.040775342764871       15.28580641433625
   228   1     -17.281350000000025      32.149374462149353       18.42135644804625
   229   1     -17.281350000000025      32.149374462149353      22.340793990183748
   230   1     -15.361199999999984      31.040775342764871      19.205243956473748
   231   1     -15.361199999999984      31.040775342764871      21.556906481756247
   232   1     -17.281350000000025      32.149374462149353      24.692456515466247
   233   1     -17.281350000000025      32.149374462149353      28.611894057603749
   234   1     -15.361199999999984      31.040775342764871      25.476344023893748
   235   1     -15.361199999999984      31.040775342764871      27.828006549176248
   236   1     -17.281350000000025      32.149374462149353      30.963556582886248
   237   1     -17.281350000000025      32.149374462149353       34.88299412502375
   238   1     -15.361199999999984      31.040775342764871      31.747444091313749
   239   1     -15.361199999999984      31.040775342764871      34.099106616596252
   240   1     -17.281350000000025      32.149374462149353      37.234656650306249
   241   1       3.840299999999981      2.2171982387689306        3.52749378792375
   242   1      5.7604500000000201       1.108599119384448        0.39194375421375
   243   1      5.7604500000000201       1.108599119384448      2.7436062794962495
   244   1       3.840299999999981      2.2171982387689306      5.8791563132062503
   245   1       3.840299999999981      2.2171982387689306      9.7985938553437499
   246   1      5.7604500000000201       1.108599119384448      6.6630438216337495
   247   1      5.7604500000000201       1.108599119384448      9.0147063469162489
   248   1       3.840299999999981      2.2171982387689306      12.150256380626249
   249   1       3.840299999999981      2.2171982387689306      16.069693922763751
   250   1      5.7604500000000201       1.108599119384448       12.93414388905375
   251   1      5.7604500000000201       1.108599119384448       15.28580641433625
   252   1       3.840299999999981      2.2171982387689306       18.42135644804625
   253   1       3.840299999999981      2.2171982387689306      22.340793990183748
   254   1      5.7604500000000201       1.108599119384448      19.205243956473748
   255   1      5.7604500000000201       1.108599119384448      21.556906481756247
   256   1       3.840299999999981      2.2171982387689306      24.692456515466247
   257   1       3.840299999999981      2.2171982387689306      28.611894057603749
   258   1      5.7604500000000201       1.108599119384448      25.476344023893748
   259   1      5.7604500000000201       1.108599119384448      27.828006549176248
   260   1       3.840299999999981      2.2171982387689306      30.963556582886248
   261   1       3.840299999999981      2.2171982387689306       34.88299412502375
   262   1      5.7604500000000201       1.108599119384448      31.747444091313749
   263   1      5.7604500000000201       1.108599119384448      34.099106616596252
   264   1       3.840299999999981      2.2171982387689306      37.234656650306249
   265   1      1.9201499999999805      5.5429955969223101        3.52749378792375
   266   1      3.8403000000000196      4.4343964775378284        0.39194375421375
   267   1      3.8403000000000196      4.4343964775378284      2.7436062794962495
   268   1      1.9201499999999805      5.5429955969223101      5.8791563132062503
   269   1      1.9201499999999805      5.5429955969223101      9.7985938553437499
   270   1      3.8403000000000196      4.4343964775378284      6.6630438216337495
   271   1      3.8403000000000196      4.4343964775378284      9.0147063469162489
   272   1      1.9201499999999805      5.5429955969223101      12.150256380626249
   273   1      1.9201499999999805      5.5429955969223101      16.069693922763751
   274   1      3.8403000000000196      4.4343964775378284       12.93414388905375
   275   1      3.8403000000000196      4.4343964775378284       15.28580641433625
   276   1      1.9201499999999805      5.5429955969223101       18.42135644804625
   277   1      1.9201499999999805      5.5429955969223101      22.340793990183748
   278   1      3.8403000000000196      4.4343964775378284      19.205243956473748
   279   1      3.8403000000000196      4.4343964775378284      21.556906481756247
   280   1      1.9201499999999805      5.5429955969223101      24.692456515466247
   281   1      1.9201499999999805      5.5429955969223101      28.611894057603749
   282   1      3.8403000000000196      4.4343964775378284      25.476344023893748
   283   1      3.8403000000000196      4.4343964775378284      27.828006549176248
   284   1      1.9201499999999805      5.5429955969223101      30.963556582886248
   285   1      1.9201499999999805      5.5429955969223101       34.88299412502375
   286   1      3.8403000000000196      4.4343964775378284      31.747444091313749
   287   1      3.8403000000000196      4.4343964775378284      34.099106616596252
   288   1      1.9201499999999805      5.5429955969223101      37.234656650306249
   289   1 -1.9539925233402755e-14      8.8687929550756905        3.52749378792375
   290   1      1.9201500000000191      7.7601938356912079        0.39194375421375
   291   1      1.9201500000000191      7.7601938356912079      2.7436062794962495
   292   1 -1.9539925233402755e-14      8.8687929550756905      5.8791563132062503
   293   1 -1.9539925233402755e-14      8.8687929550756905      9.7985938553437499
   294   1      1.9201500000000191      7.7601938356912079      6.6630438216337495
   295   1      1.9201500000000191      7.7601938356912079      9.0147063469162489
   296   1 -1.9539925233402755e-14      8.8687929550756905      12.150256380626249
   297   1 -1.9539925233402755e-14      8.8687929550756905      16.069693922763751
   298   1      1.9201500000000191      7.7601938356912079       12.93414388905375
   299   1      1.9201500000000191      7.7601938356912079       15.28580641433625
   300   1 -1.9539925233402755e-14      8.8687929550756905       18.42135644804625
   301   1 -1.9539925233402755e-14      8.8687929550756905      22.340793990183748
   302   1      1.9201500000000191      7.7601938356912079      19.205243956473748
   303   1      1.9201500000000191      7.7601938356912079      21.556906481756247
   304   1 -1.9539925233402755e-14      8.8687929550756905      24.692456515466247
   305   1 -1.9539925233402755e-14      8.8687929550756905      28.611894057603749
   306   1      1.9201500000000191      7.7601938356912079      25.476344023893748
   307   1      1.9201500000000191      7.7601938356912079      27.828006549176248
   308   1 -1.9539925233402755e-14      8.8687929550756905      30.963556582886248
   309   1 -1.9539925233402755e-14      8.8687929550756905       34.88299412502375
   310   1      1.9201500000000191      7.7601938356912079      31.747444091313749
   311   1      1.9201500000000191      7.7601938356912079      34.099106616596252
   312   1 -1.9539925233402755e-14      8.8687929550756905      37.234656650306249
   313   1       -1.92015000000002      12.194590313229071        3.52749378792375
   314   1  1.9539925233402755e-14      11.085991193844588        0.39194375421375
   315   1  1.9539925233402755e-14      11.085991193844588      2.7436062794962495
   316   1       -1.92015000000002      12.194590313229071      5.8791563132062503
   317   1       -1.92015000000002      12.194590313229071      9.7985938553437499
   318   1  1.9539925233402755e-14      11.085991193844588      6.6630438216337495
   319   1  1.9539925233402755e-14      11.085991193844588      9.0147063469162489
   320   1       -1.92015000000002      12.194590313229071      12.150256380626249
   321   1       -1.92015000000002      12.194590313229071      16.069693922763751
   322   1  1.9539925233402755e-14      11.085991193844588       12.93414388905375
   323   1  1.9539925233402755e-14      11.085991193844588       15.28580641433625
   324   1       -1.92015000000002      12.194590313229071       18.42135644804625
   325   1       -1.92015000000002      12.194590313229071      22.340793990183748
   326   1  1.9539925233402755e-14      11.085991193844588      19.205243956473748
   327   1  1.9539925233402755e-14      11.085991193844588      21.556906481756247
   328   1       -1.92015000000002      12.194590313229071      24.692456515466247
   329   1       -1.92015000000002      12.194590313229071      28.611894057603749
   330   1  1.9539925233402755e-14      11.085991193844588      25.476344023893748
   331   1  1.9539925233402755e-14      11.085991193844588      27.828006549176248
   332   1       -1.92015000000002      12.194590313229071      30.963556582886248
   333   1       -1.92015000000002      12.194590313229071       34.88299412502375
   334   1  1.9539925233402755e-14      11.085991193844588      31.747444091313749
   335   1  1.9539925233402755e-14      11.085991193844588      34.099106616596252
   336   1       -1.92015000000002      12.194590313229071      37.234656650306249
   337   1     -3.8403000000000214       15.52038767138245        3.52749378792375
   338   1     -1.9201499999999818      14.411788551997967        0.39194375421375
   339   1     -1.9201499999999818      14.411788551997967      2.7436062794962495
   340   1     -3.8403000000000214       15.52038767138245      5.8791563132062503
   341   1     -3.8403000000000214       15.52038767138245      9.7985938553437499
   342   1     -1.9201499999999818      14.411788551997967      6.6630438216337495
   343   1     -1.9201499999999818      14.411788551997967      9.0147063469162489
   344   1     -3.8403000000000214       15.52038767138245      12.150256380626249
   345   1     -3.8403000000000214       15.52038767138245      16.069693922763751
   346   1     -1.9201499999999818      14.411788551997967       12.93414388905375
   347   1     -1.9201499999999818      14.411788551997967       15.28580641433625
   348   1     -3.8403000000000214       15.52038767138245       18.42135644804625
   349   1     -3.8403000000000214       15.52038767138245      22.340793990183748
   350   1     -1.9201499999999818      14.411788551997967      19.205243956473748
   351   1     -1.9201499999999818      14.411788551997967      21.556906481756247
   352   1     -3.8403000000000214       15.52038767138245      24.692456515466247
   353   1     -3.8403000000000214       15.52038767138245      28.611894057603749
   354   1     -1.9201499999999818      14.411788551997967      25.476344023893748
   355   1     -1.9201499999999818      14.411788551997967      27.828006549176248
   356   1     -3.8403000000000214       15.52038767138245      30.963556582886248
   357   1     -3.8403000000000214       15.52038767138245       34.88299412502375